LAMMPS (10 Dec 2025 - Development)
OMP_NUM_THREADS environment is not set. Defaulting to 1 thread.
  using 1 OpenMP thread(s) per MPI task
package gpu 1
# Load then unload four cantilevers with different plastic yield strains
#   model from DOI: 10.1016/j.powtec.2024.120563

units           lj
dimension       3
boundary        p s s
atom_style      bond
special_bonds   lj 0.0 1.0 1.0 coul 0.0 1.0 1.0
newton          on off
comm_modify     vel yes cutoff 2.6
lattice         fcc 1.41
Lattice spacing in x,y,z = 1.4156209 1.4156209 1.4156209
region          box block 0 20 -1 41 -5 5 units box
create_box      4 box bond/types 4 extra/bond/per/atom 20 extra/special/per/atom 50
Created orthogonal box = (0 -1 -5) to (20 41 5)
  1 by 1 by 1 MPI processor grid
mass            * 1.0

# Create initial disordered geometry somewhat near jamming

region          cantilever block 3.0 12.0 0 40 -2.5 2.5 units box
region          cantileverw block 2.0 13.0 -1 41 -3.5 3.5 units box
create_atoms    1 region cantilever
Created 2394 atoms
  using lattice units in orthogonal box = (0 -1.0042 -5.001) to (20 41.0042 5.001)
  create_atoms CPU = 0.001 seconds

velocity        all create 0.1 345910

pair_style      bpm/spring
pair_coeff      * * 1.0 1.0 1.0

fix             1 all nve
fix             wtemp all wall/region cantileverw harmonic 1.0 1.0 1.0

thermo_style    custom step ke pe pxx pyy pzz
thermo          100

timestep        0.1
run             20000

CITE-CITE-CITE-CITE-CITE-CITE-CITE-CITE-CITE-CITE-CITE-CITE-CITE

Your simulation uses code contributions which should be cited:

- GPU package (short-range, long-range and three-body potentials): https://doi.org/10.1016/j.cpc.2010.12.021, https://doi.org/10.1016/j.cpc.2011.10.012, https://doi.org/10.1016/j.cpc.2013.08.002, https://doi.org/10.1016/j.commatsci.2014.10.068, https://doi.org/10.1016/j.cpc.2016.10.020, https://doi.org/10.3233/APC200086

@Article{Brown11,
 author = {W. M. Brown and P. Wang and S. J. Plimpton and A. N. Tharrington},
 title = {Implementing Molecular Dynamics on Hybrid High Performance Computers---Short Range Forces},
 journal = {Comput.\ Phys.\ Commun.},
 year =    2011,
 volume =  182,
 pages =   {898--911},
 doi =     {10.1016/j.cpc.2010.12.021}
}

@Article{Brown12,
 author = {W. M. Brown and A. Kohlmeyer and S. J. Plimpton and A. N. Tharrington},
 title = {Implementing Molecular Dynamics on Hybrid High Performance Computers - Particle-Particle Particle-Mesh},
 journal = {Comput.\ Phys.\ Commun.},
 year =    2012,
 volume =  183,
 doi =     {10.1016/j.cpc.2011.10.012},
 pages =   {449--459}
}

@Article{Brown13,
 author = {W. M. Brown and Y. Masako},
 title = {Implementing Molecular Dynamics on Hybrid High Performance Computers---Three-Body Potentials},
 journal = {Comput.\ Phys.\ Commun.},
 year =    2013,
 volume =  184,
 pages =   {2785--2793},
 doi =     {10.1016/j.cpc.2013.08.002},
}

@Article{Trung15,
 author = {T. D. Nguyen and S. J. Plimpton},
 title = {Accelerating Dissipative Particle Dynamics Simulations for Soft Matter Systems},
 journal = {Comput.\ Mater.\ Sci.},
 year =    2015,
 doi =     {10.1016/j.commatsci.2014.10.068},
 volume =  100,
 pages =   {173--180}
}

@Article{Trung17,
 author = {T. D. Nguyen},
 title = {{GPU}-Accelerated {T}ersoff Potentials for Massively Parallel
    Molecular Dynamics Simulations},
 journal = {Comput.\ Phys.\ Commun.},
 year =    2017,
 doi =     {10.1016/j.cpc.2016.10.020},
 volume =  212,
 pages =   {113--122}
}

@inproceedings{Nikolskiy19,
 author = {V. Nikolskiy and V. Stegailov},
 title = {{GPU} Acceleration of Four-Site Water Models in {LAMMPS}},
 booktitle = {Proceedings of the International Conference on Parallel
    Computing (ParCo 2019), Prague, Czech Republic},
 doi =     {10.3233/APC200086},
 year =    2019
}

CITE-CITE-CITE-CITE-CITE-CITE-CITE-CITE-CITE-CITE-CITE-CITE-CITE

Generated 0 of 6 mixed pair_coeff terms from geometric mixing rule
Neighbor list info ...
  update: every = 1 steps, delay = 0 steps, check = yes
  max neighbors/atom: 2000, page size: 100000
  master list distance cutoff = 1.3
  ghost atom cutoff = 2.6
  binsize = 0.65, bins = 31 65 16
  1 neighbor lists, perpetual/occasional/extra = 1 0 0
  (1) pair bpm/spring, perpetual
      attributes: half, newton on
      pair build: half/bin/newton
      stencil: half/bin/3d
      bin: standard
Per MPI rank memory allocation (min/avg/max) = 9.807 | 9.807 | 9.807 Mbytes
   Step         KinEng         PotEng          Pxx            Pyy            Pzz      
         0   0.14993734     0              0.071514461    0.070121562    0.071454556  
       100   0.0066788839   0.0029982274   0.016637041    0.016868542    0.015823802  
       200   0.0019715508   0.00071490141  0.007843495    0.0076223765   0.0067662021 
       300   0.00087217257  0.00026043228  0.003985349    0.004259066    0.0040664397 
       400   0.00050307484  0.00011882009  0.0024899485   0.0025393633   0.0024477801 
       500   0.00033241763  6.5955939e-05  0.0016895447   0.0018048761   0.0017308071 
       600   0.00023663671  4.4828066e-05  0.0013515511   0.001353668    0.0013208904 
       700   0.0001837694   2.7185024e-05  0.00094852029  0.0010286312   0.00099370739
       800   0.00014655165  1.8873405e-05  0.00075979673  0.0008230931   0.00075345332
       900   0.00012145909  1.4344012e-05  0.00060702604  0.00068683252  0.00061213385
      1000   0.00010239299  1.2153676e-05  0.0005507874   0.00060838425  0.00054159268
      1100   8.8075368e-05  9.9954283e-06  0.00045915185  0.00057179938  0.0004701489 
      1200   7.8336825e-05  7.4598555e-06  0.0003828639   0.00042328194  0.00040077783
      1300   6.8617857e-05  7.4071392e-06  0.0003896283   0.00045042627  0.00042176773
      1400   6.1816121e-05  5.775666e-06   0.00035626094  0.00037452624  0.00033148698
      1500   5.5159082e-05  5.300834e-06   0.00032659683  0.00035058062  0.00031429074
      1600   5.0681159e-05  4.4196454e-06  0.00027416475  0.00032191565  0.00030181178
      1700   4.6022374e-05  4.0210537e-06  0.00026898666  0.00029963457  0.00027487015
      1800   4.1982017e-05  3.9590926e-06  0.00027126081  0.00028174403  0.00026668273
      1900   3.8730976e-05  3.566928e-06   0.00024302817  0.00026846783  0.00025386587
      2000   3.6176592e-05  2.9456239e-06  0.00022581538  0.00025319151  0.00021458635
      2100   3.3350771e-05  2.753316e-06   0.00022313259  0.00023773054  0.00019396932
      2200   3.1307796e-05  2.423978e-06   0.00017429688  0.00022288376  0.00018515165
      2300   2.9080717e-05  2.2677794e-06  0.00016897878  0.0002120479   0.00017688184
      2400   2.7163474e-05  2.1208104e-06  0.00017174377  0.00021111726  0.00018679419
      2500   2.536402e-05   2.113806e-06   0.00017715164  0.00018874698  0.00018851404
      2600   2.4020311e-05  1.7764353e-06  0.0001656117   0.00016357404  0.00016543363
      2700   2.2699547e-05  1.5677362e-06  0.00013469143  0.00016931181  0.00013792033
      2800   2.148826e-05   1.5071072e-06  0.00012696671  0.00016682917  0.00014767574
      2900   2.0161535e-05  1.5155396e-06  0.00013228966  0.000165094    0.00014217061
      3000   1.9308041e-05  1.3731634e-06  0.00013650301  0.00014794944  0.00012989493
      3100   1.8329818e-05  1.3071495e-06  0.00013365707  0.00013658758  0.00012487917
      3200   1.7688499e-05  9.8857554e-07  9.6750445e-05  0.00012455451  0.00011699106
      3300   1.6574132e-05  1.1352466e-06  0.00012147818  0.00012409663  0.00011470582
      3400   1.5855594e-05  1.1304608e-06  0.00012302916  0.00012657559  0.00011762729
      3500   1.5251979e-05  9.8462222e-07  0.00011171133  0.00012227795  0.0001006376 
      3600   1.4712463e-05  8.909716e-07   0.00010761549  0.00011898942  0.0001000627 
      3700   1.4046449e-05  9.1112355e-07  0.00010154315  0.00011834572  0.00010459147
      3800   1.349866e-05   8.7300578e-07  0.00010530758  0.00011213305  0.00010425414
      3900   1.3011452e-05  8.1548402e-07  9.8866919e-05  9.7922039e-05  9.618762e-05 
      4000   1.2535811e-05  7.9544159e-07  9.0934662e-05  0.000107722    9.8534971e-05
      4100   1.2065719e-05  7.7741852e-07  9.333948e-05   9.856844e-05   8.4950451e-05
      4200   1.1744749e-05  6.5187912e-07  7.749246e-05   9.3378034e-05  8.4344837e-05
      4300   1.1276359e-05  6.7106335e-07  8.7850508e-05  9.126203e-05   7.8715133e-05
      4400   1.097636e-05   6.1404549e-07  7.9606063e-05  8.9730998e-05  7.8916526e-05
      4500   1.0653753e-05  5.7090156e-07  7.8094301e-05  7.7681997e-05  7.6264526e-05
      4600   1.0291349e-05  5.916214e-07   8.4277982e-05  7.5150924e-05  8.17754e-05  
      4700   9.9268285e-06  6.0268662e-07  7.1718735e-05  7.5181533e-05  8.1589495e-05
      4800   9.6780607e-06  5.2940158e-07  6.9296365e-05  7.1418361e-05  7.899341e-05 
      4900   9.4554184e-06  5.0039816e-07  6.6968482e-05  7.68382e-05    6.9777151e-05
      5000   9.175378e-06   4.6784493e-07  6.833575e-05   6.9685527e-05  7.095212e-05 
      5100   8.9223867e-06  4.7741702e-07  6.3226581e-05  7.4951334e-05  6.7739399e-05
      5200   8.6508998e-06  4.8081284e-07  6.9503267e-05  7.3970041e-05  6.5506757e-05
      5300   8.3965671e-06  4.6976584e-07  6.6305048e-05  7.0611899e-05  6.6372468e-05
      5400   8.2041726e-06  4.2587104e-07  6.5530235e-05  6.813209e-05   5.6793027e-05
      5500   8.0454559e-06  3.8594585e-07  5.8483989e-05  6.6565782e-05  6.4312953e-05
      5600   7.8438231e-06  3.8299835e-07  6.0275382e-05  5.962152e-05   5.397291e-05 
      5700   7.6214016e-06  3.806853e-07   6.0646726e-05  6.28733e-05    5.735009e-05 
      5800   7.4762691e-06  3.5432496e-07  5.6093776e-05  5.2414394e-05  5.9142456e-05
      5900   7.3882201e-06  2.7201246e-07  4.4079045e-05  5.0448554e-05  5.7205408e-05
      6000   7.1384856e-06  3.4145655e-07  5.3541373e-05  5.8220183e-05  5.3161596e-05
      6100   7.0540167e-06  2.692445e-07   4.5057174e-05  4.8734482e-05  4.587663e-05 
      6200   6.8681095e-06  2.896488e-07   5.1971155e-05  5.6320613e-05  4.075045e-05 
      6300   6.6651706e-06  3.3306767e-07  5.5927197e-05  5.3781346e-05  5.7892054e-05
      6400   6.5593963e-06  2.636356e-07   4.7647217e-05  4.9770762e-05  4.4355179e-05
      6500   6.3888754e-06  3.2564787e-07  5.5252831e-05  4.8937485e-05  4.9010066e-05
      6600   6.2953697e-06  2.716234e-07   4.3789449e-05  4.7280447e-05  4.7432088e-05
      6700   6.0981963e-06  3.1350402e-07  4.7578334e-05  5.4628923e-05  4.9510566e-05
      6800   6.0362232e-06  2.792675e-07   4.0879583e-05  5.3364797e-05  4.0120535e-05
      6900   5.9112322e-06  2.6482483e-07  4.0874374e-05  4.7107292e-05  4.422408e-05 
      7000   5.8002363e-06  2.6219432e-07  3.6479377e-05  4.9303675e-05  4.5557024e-05
      7100   5.6440478e-06  2.4230054e-07  4.1232586e-05  4.8259835e-05  4.036544e-05 
      7200   5.5525498e-06  2.4971468e-07  4.3416675e-05  4.5397797e-05  4.0006146e-05
      7300   5.5184775e-06  2.0130782e-07  4.2975394e-05  4.0243914e-05  3.7718924e-05
      7400   5.391374e-06   2.1968038e-07  4.6488113e-05  4.1744235e-05  3.5480343e-05
      7500   5.3158775e-06  1.9702217e-07  3.8135288e-05  4.1025908e-05  3.307973e-05 
      7600   5.2547794e-06  1.8293619e-07  3.6232665e-05  3.8586476e-05  3.6629791e-05
      7700   5.1271866e-06  2.2090873e-07  4.1364789e-05  4.0497238e-05  4.3376508e-05
      7800   5.0400705e-06  2.1751792e-07  3.8907137e-05  4.2964837e-05  3.885571e-05 
      7900   4.9728464e-06  1.8333888e-07  3.6432396e-05  2.7579999e-05  3.726056e-05 
      8000   4.9103514e-06  1.7031421e-07  3.5065157e-05  3.8183763e-05  2.7023237e-05
      8100   4.8474674e-06  1.6203091e-07  3.0144449e-05  3.5415229e-05  3.2029234e-05
      8200   4.7532453e-06  1.6682388e-07  3.4050938e-05  3.4257829e-05  3.3261093e-05
      8300   4.655685e-06   2.0190971e-07  3.4595437e-05  4.5172349e-05  3.7679498e-05
      8400   4.5885229e-06  1.8274754e-07  3.1487189e-05  4.1354009e-05  3.5762973e-05
      8500   4.5242368e-06  1.8087446e-07  3.8011733e-05  3.1694709e-05  3.6152784e-05
      8600   4.4475233e-06  1.8670021e-07  4.0135744e-05  4.0095675e-05  3.3062733e-05
      8700   4.4116539e-06  1.5735827e-07  3.4133175e-05  2.9903567e-05  3.5616663e-05
      8800   4.3539914e-06  1.5691142e-07  2.720289e-05   3.4405885e-05  3.1442159e-05
      8900   4.2930004e-06  1.5424283e-07  3.0780364e-05  3.4727259e-05  2.9589165e-05
      9000   4.2365306e-06  1.4548367e-07  2.9423659e-05  3.2017546e-05  3.2829894e-05
      9100   4.1740598e-06  1.5410744e-07  3.4214072e-05  2.9715331e-05  3.2975527e-05
      9200   4.1242771e-06  1.3964464e-07  2.7900772e-05  3.0024879e-05  2.7958601e-05
      9300   4.0572022e-06  1.5943565e-07  3.784065e-05   3.6339312e-05  2.7189655e-05
      9400   4.0377318e-06  1.1977769e-07  2.6282501e-05  3.0237211e-05  2.7186716e-05
      9500   3.9979151e-06  1.2825942e-07  2.874941e-05   2.925148e-05   2.7494151e-05
      9600   3.9307136e-06  1.3665361e-07  2.8116948e-05  3.2275136e-05  2.8552429e-05
      9700   3.8992304e-06  1.132934e-07   2.4958249e-05  2.8166516e-05  2.4673595e-05
      9800   3.8219043e-06  1.4449114e-07  3.3608e-05     2.7994107e-05  2.7368425e-05
      9900   3.7973485e-06  1.1475023e-07  2.5152127e-05  2.5915443e-05  2.8106771e-05
     10000   3.7491994e-06  1.17001e-07    2.6489772e-05  2.4144367e-05  2.3819661e-05
     10100   3.7241802e-06  9.6671914e-08  2.651037e-05   2.6812372e-05  1.9000786e-05
     10200   3.684007e-06   9.5511548e-08  2.1622084e-05  2.345881e-05   2.2840885e-05
     10300   3.6501894e-06  9.8336088e-08  2.3244336e-05  2.4123256e-05  2.3917598e-05
     10400   3.5930209e-06  1.1208145e-07  2.469553e-05   2.2310774e-05  2.4311222e-05
     10500   3.5592157e-06  1.0020848e-07  2.2547832e-05  2.6572458e-05  2.0549364e-05
     10600   3.5139964e-06  9.4429333e-08  2.3152997e-05  2.4056188e-05  2.2383171e-05
     10700   3.4937238e-06  8.8099136e-08  2.071117e-05   2.5162679e-05  2.350486e-05 
     10800   3.4452621e-06  9.7194602e-08  2.3580009e-05  2.6877052e-05  2.0753525e-05
     10900   3.3974913e-06  1.1180555e-07  2.2170234e-05  2.5823482e-05  2.6603762e-05
     11000   3.3731189e-06  9.5422569e-08  2.3420585e-05  2.3019355e-05  1.9068098e-05
     11100   3.3459711e-06  8.9354715e-08  2.1329473e-05  2.2728849e-05  2.2137671e-05
     11200   3.3110232e-06  9.9964363e-08  2.2559605e-05  2.212327e-05   2.3293762e-05
     11300   3.2780313e-06  8.7182844e-08  2.3773086e-05  2.0722774e-05  2.0395552e-05
     11400   3.2553803e-06  7.5319638e-08  2.0123237e-05  2.1859438e-05  1.8183827e-05
     11500   3.2166555e-06  7.8100156e-08  1.9809828e-05  2.1546379e-05  2.1053488e-05
     11600   3.1947532e-06  7.6257544e-08  2.0262916e-05  2.0456915e-05  2.1277644e-05
     11700   3.1389544e-06  9.3022575e-08  2.1860997e-05  2.4452878e-05  1.9036286e-05
     11800   3.1309084e-06  7.6800454e-08  1.953758e-05   2.0310992e-05  2.0416906e-05
     11900   3.0794015e-06  9.8424845e-08  2.3501142e-05  1.9975655e-05  2.4885187e-05
     12000   3.060071e-06   7.7397189e-08  2.0944698e-05  1.9047747e-05  1.9329761e-05
     12100   3.0338177e-06  8.2205467e-08  2.0190777e-05  2.2253189e-05  1.9365774e-05
     12200   3.0037861e-06  8.2345147e-08  2.153456e-05   1.7607632e-05  2.1087666e-05
     12300   2.9732233e-06  7.5681341e-08  2.0080177e-05  1.9904922e-05  1.9046494e-05
     12400   2.9656601e-06  7.4351631e-08  1.8762086e-05  1.7625287e-05  2.0637129e-05
     12500   2.9380335e-06  7.01243e-08    1.6531268e-05  1.8661867e-05  2.0491779e-05
     12600   2.9085373e-06  7.7935211e-08  1.8203656e-05  1.8341112e-05  2.0611159e-05
     12700   2.8735551e-06  8.2994408e-08  1.9733157e-05  2.0331158e-05  1.7445766e-05
     12800   2.8295288e-06  1.004685e-07   2.3234424e-05  2.4481848e-05  1.800099e-05 
     12900   2.8259497e-06  7.7277592e-08  1.927169e-05   1.8790365e-05  2.0524585e-05
     13000   2.8077091e-06  7.2820858e-08  2.1799694e-05  1.8055917e-05  1.7572759e-05
     13100   2.7815832e-06  7.5168643e-08  2.1094968e-05  1.9693463e-05  2.0216945e-05
     13200   2.7679177e-06  6.3112721e-08  1.5351448e-05  1.7706471e-05  1.8459173e-05
     13300   2.7386273e-06  6.9492158e-08  1.7067889e-05  1.8836183e-05  2.0057372e-05
     13400   2.7023772e-06  7.1483024e-08  1.6225261e-05  1.7758427e-05  1.6353705e-05
     13500   2.6955715e-06  6.213647e-08   1.8493348e-05  2.0468337e-05  1.4007838e-05
     13600   2.6768017e-06  6.4873693e-08  2.0986728e-05  1.5965196e-05  1.5488516e-05
     13700   2.6645258e-06  5.7739728e-08  1.5152476e-05  1.9933579e-05  1.4761266e-05
     13800   2.615671e-06   8.4664621e-08  1.942405e-05   2.1884811e-05  1.9202171e-05
     13900   2.6101281e-06  6.9006577e-08  1.8054494e-05  1.8532956e-05  1.6055691e-05
     14000   2.5956662e-06  5.4796952e-08  1.5594908e-05  1.382426e-05   1.419262e-05 
     14100   2.5679081e-06  6.8855855e-08  1.7985925e-05  1.8457702e-05  1.3322047e-05
     14200   2.5524417e-06  6.8109424e-08  1.4216833e-05  1.6981854e-05  1.9638517e-05
     14300   2.5228432e-06  6.8609665e-08  1.5403189e-05  1.9945193e-05  1.4584048e-05
     14400   2.5171483e-06  5.1615611e-08  1.634873e-05   1.471969e-05   1.4778275e-05
     14500   2.4901774e-06  6.1991106e-08  1.6897782e-05  1.3518066e-05  1.4605764e-05
     14600   2.4782749e-06  5.3112428e-08  1.4354818e-05  1.6299199e-05  1.3017487e-05
     14700   2.4419663e-06  6.4597904e-08  1.5000117e-05  2.0375669e-05  1.8476002e-05
     14800   2.4314716e-06  6.0893884e-08  1.5861875e-05  1.5869827e-05  1.816718e-05 
     14900   2.4215766e-06  4.7315921e-08  1.3791056e-05  1.4521832e-05  1.4389189e-05
     15000   2.3967965e-06  4.701926e-08   1.3800377e-05  1.528356e-05   1.4170946e-05
     15100   2.3702776e-06  6.7018276e-08  1.7950302e-05  1.8482946e-05  1.6580202e-05
     15200   2.3508359e-06  6.3587295e-08  1.380981e-05   1.987199e-05   1.6350222e-05
     15300   2.3361702e-06  5.7680389e-08  1.5606962e-05  1.553435e-05   1.7455639e-05
     15400   2.320903e-06   5.8087814e-08  1.4451474e-05  1.6762013e-05  1.4929233e-05
     15500   2.3116949e-06  5.0800972e-08  1.4363429e-05  1.5398854e-05  1.6216749e-05
     15600   2.2965157e-06  4.854975e-08   1.4891934e-05  1.4644031e-05  1.5069104e-05
     15700   2.2650476e-06  5.9109336e-08  1.3360786e-05  1.6195126e-05  1.5296184e-05
     15800   2.2711531e-06  4.0256534e-08  1.2152122e-05  1.3476148e-05  1.0009741e-05
     15900   2.2482915e-06  4.9495617e-08  1.458185e-05   1.2374187e-05  1.3937813e-05
     16000   2.2319685e-06  4.494557e-08   1.3404332e-05  1.4314521e-05  1.2807481e-05
     16100   2.2016037e-06  6.1731863e-08  1.6712171e-05  1.7357354e-05  1.6318886e-05
     16200   2.1966779e-06  4.8973925e-08  1.4902444e-05  1.4287716e-05  1.2694036e-05
     16300   2.1810261e-06  4.2545654e-08  1.2434861e-05  1.2263991e-05  1.2416549e-05
     16400   2.1648287e-06  4.8002575e-08  1.2802316e-05  1.3017858e-05  1.208747e-05 
     16500   2.1324804e-06  6.0886153e-08  1.5665866e-05  1.4598426e-05  1.6222166e-05
     16600   2.1278145e-06  5.0308799e-08  1.3348509e-05  1.2309934e-05  1.7214093e-05
     16700   2.1137843e-06  4.7007967e-08  1.4866406e-05  1.4862239e-05  1.194784e-05 
     16800   2.106439e-06   3.9395458e-08  1.12375e-05    1.2379816e-05  1.286199e-05 
     16900   2.083127e-06   4.8026779e-08  1.4465172e-05  1.2465726e-05  1.3801719e-05
     17000   2.0629918e-06  5.4437446e-08  1.3721298e-05  1.5735537e-05  1.4226239e-05
     17100   2.0622495e-06  4.0708032e-08  1.2256583e-05  1.1332959e-05  1.3293948e-05
     17200   2.0586272e-06  3.5417105e-08  1.2318067e-05  1.3434399e-05  1.0710918e-05
     17300   2.0231693e-06  5.9376954e-08  1.5064496e-05  1.7093909e-05  1.4318329e-05
     17400   2.028133e-06   4.0705084e-08  1.4752728e-05  1.1499608e-05  1.2006275e-05
     17500   2.0130171e-06  4.1469186e-08  1.2729139e-05  1.2185974e-05  1.3642971e-05
     17600   1.9901889e-06  4.9475067e-08  1.6870972e-05  1.2871052e-05  1.2798305e-05
     17700   1.9826083e-06  4.2307855e-08  1.2477112e-05  1.260062e-05   1.4687253e-05
     17800   1.9752659e-06  3.8886329e-08  1.1149339e-05  1.4020789e-05  1.3715161e-05
     17900   1.9572024e-06  5.3229119e-08  1.151335e-05   1.7378517e-05  1.3344743e-05
     18000   1.9555503e-06  3.8689805e-08  1.173541e-05   1.2077237e-05  1.2964392e-05
     18100   1.9371023e-06  4.6344316e-08  1.5222839e-05  1.3911806e-05  1.2439396e-05
     18200   1.9351866e-06  3.6663749e-08  1.1152236e-05  1.2463067e-05  1.3792297e-05
     18300   1.9157544e-06  4.3809199e-08  1.1568273e-05  1.466863e-05   1.1536408e-05
     18400   1.9001275e-06  4.1689144e-08  1.3360699e-05  1.3631701e-05  1.1518028e-05
     18500   1.8979748e-06  3.1945061e-08  9.6314587e-06  1.3207727e-05  8.7100109e-06
     18600   1.893789e-06   2.7012561e-08  9.1450135e-06  1.2562167e-05  9.0571577e-06
     18700   1.8597224e-06  4.9448989e-08  1.0219546e-05  1.4475966e-05  1.287922e-05 
     18800   1.8502549e-06  4.4944822e-08  1.4172096e-05  1.3553206e-05  1.2324589e-05
     18900   1.8516102e-06  3.5987686e-08  9.8466106e-06  1.1715252e-05  1.2333271e-05
     19000   1.8487316e-06  3.0022509e-08  9.7771035e-06  1.1908378e-05  1.0662038e-05
     19100   1.8252118e-06  3.6604142e-08  1.1479253e-05  1.2915805e-05  1.2048309e-05
     19200   1.8008536e-06  5.0984177e-08  1.6869555e-05  1.3711171e-05  1.4365238e-05
     19300   1.8092597e-06  3.4694964e-08  1.2077025e-05  1.3232673e-05  1.1702691e-05
     19400   1.7913832e-06  3.8174288e-08  1.0487372e-05  1.3913381e-05  1.2714043e-05
     19500   1.7916618e-06  2.9761947e-08  1.1497581e-05  9.666022e-06   8.7130685e-06
     19600   1.7671278e-06  4.3263469e-08  1.4061034e-05  1.3573726e-05  1.2495112e-05
     19700   1.7783769e-06  2.2449942e-08  7.3129346e-06  8.0118295e-06  1.0331178e-05
     19800   1.7545037e-06  3.3872639e-08  1.1016536e-05  1.1412084e-05  9.3495863e-06
     19900   1.758614e-06   2.4048029e-08  9.6320865e-06  1.0661389e-05  7.6638539e-06
     20000   1.7384061e-06  3.1065418e-08  9.6778565e-06  8.3260193e-06  1.0970713e-05
Loop time of 3.63647 on 1 procs for 20000 steps with 2394 atoms

Performance: 47518592.022 tau/day, 5499.837 timesteps/s, 13.167 Matom-step/s
99.6% CPU use with 1 MPI tasks x 1 OpenMP threads

MPI task timing breakdown:
Section |  min time  |  avg time  |  max time  |%varavg| %total
---------------------------------------------------------------
Pair    | 1.7469     | 1.7469     | 1.7469     |   0.0 | 48.04
Bond    | 0.0023175  | 0.0023175  | 0.0023175  |   0.0 |  0.06
Neigh   | 0.31956    | 0.31956    | 0.31956    |   0.0 |  8.79
Comm    | 0.014597   | 0.014597   | 0.014597   |   0.0 |  0.40
Output  | 0.008745   | 0.008745   | 0.008745   |   0.0 |  0.24
Modify  | 1.3513     | 1.3513     | 1.3513     |   0.0 | 37.16
Other   |            | 0.1931     |            |       |  5.31

Nlocal:           2394 ave        2394 max        2394 min
Histogram: 1 0 0 0 0 0 0 0 0 0
Nghost:              0 ave           0 max           0 min
Histogram: 1 0 0 0 0 0 0 0 0 0
Neighs:          11179 ave       11179 max       11179 min
Histogram: 1 0 0 0 0 0 0 0 0 0

Total # of neighbors = 11179
Ave neighs/atom = 4.6695906
Ave special neighs/atom = 0
Neighbor list builds = 196
Dangerous builds = 0
unfix           wtemp

# Replicate cylinder and add bonds

replicate       4 1 1
Replication is creating a 4x1x1 = 4 times larger system...
  orthogonal box = (0 -0.0049576975 -2.5027968) to (80 40.004723 2.5018397)
  1 by 1 by 1 MPI processor grid
  9576 atoms
Finding 1-2 1-3 1-4 neighbors ...
  special bond factors lj:    0        1        1       
  special bond factors coul:  0        1        1       
     0 = max # of 1-2 neighbors
   101 = max # of special neighbors
  special bonds CPU = 0.001 seconds
  replicate CPU = 0.003 seconds

region          r1 block 0.0  20.0 EDGE EDGE EDGE EDGE side in units box
region          r2 block 20.0 40.0 EDGE EDGE EDGE EDGE side in units box
region          r3 block 40.0 60.0 EDGE EDGE EDGE EDGE side in units box
region          r4 block 60.0 80.0 EDGE EDGE EDGE EDGE side in units box

group           c1 region r1
2394 atoms in group c1
group           c2 region r2
2394 atoms in group c2
group           c3 region r3
2394 atoms in group c3
group           c4 region r4
2394 atoms in group c4

set             group c2 type 2
Setting atom values ...
  2394 settings made for type
set             group c3 type 3
Setting atom values ...
  2394 settings made for type
set             group c4 type 4
Setting atom values ...
  2394 settings made for type

velocity        all set 0.0 0.0 0.0
neighbor        1.0 bin

create_bonds    many c1 c1 1 0.0 1.5
Generated 0 of 6 mixed pair_coeff terms from geometric mixing rule
Neighbor list info ...
  update: every = 1 steps, delay = 0 steps, check = yes
  max neighbors/atom: 2000, page size: 100000
  master list distance cutoff = 2
  ghost atom cutoff = 2.6
  binsize = 1, bins = 80 41 6
  2 neighbor lists, perpetual/occasional/extra = 1 1 0
  (1) command create_bonds, occasional
      attributes: full, newton on
      pair build: full/bin
      stencil: full/bin/3d
      bin: standard
  (2) pair bpm/spring, perpetual
      attributes: half, newton on
      pair build: half/bin/newton
      stencil: half/bin/3d
      bin: standard
Added 13700 bonds, new total = 13700
Finding 1-2 1-3 1-4 neighbors ...
  special bond factors lj:    0        1        1       
  special bond factors coul:  0        1        1       
    17 = max # of 1-2 neighbors
   101 = max # of special neighbors
  special bonds CPU = 0.002 seconds
create_bonds    many c2 c2 2 0.0 1.5
Generated 0 of 6 mixed pair_coeff terms from geometric mixing rule
WARNING: Bonds are defined but no bond style is set (src/force.cpp:198)
WARNING: Likewise 1-2 special neighbor interactions != 1.0 (src/force.cpp:200)
Neighbor list info ...
  update: every = 1 steps, delay = 0 steps, check = yes
  max neighbors/atom: 2000, page size: 100000
  master list distance cutoff = 2
  ghost atom cutoff = 2.6
  binsize = 1, bins = 80 41 6
  2 neighbor lists, perpetual/occasional/extra = 1 1 0
  (1) command create_bonds, occasional
      attributes: full, newton on
      pair build: full/bin
      stencil: full/bin/3d
      bin: standard
  (2) pair bpm/spring, perpetual
      attributes: half, newton on
      pair build: half/bin/newton
      stencil: half/bin/3d
      bin: standard
Added 13700 bonds, new total = 27400
Finding 1-2 1-3 1-4 neighbors ...
  special bond factors lj:    0        1        1       
  special bond factors coul:  0        1        1       
    17 = max # of 1-2 neighbors
   101 = max # of special neighbors
  special bonds CPU = 0.003 seconds
create_bonds    many c3 c3 3 0.0 1.5
Generated 0 of 6 mixed pair_coeff terms from geometric mixing rule
WARNING: Bonds are defined but no bond style is set (src/force.cpp:198)
WARNING: Likewise 1-2 special neighbor interactions != 1.0 (src/force.cpp:200)
Neighbor list info ...
  update: every = 1 steps, delay = 0 steps, check = yes
  max neighbors/atom: 2000, page size: 100000
  master list distance cutoff = 2
  ghost atom cutoff = 2.6
  binsize = 1, bins = 80 41 6
  2 neighbor lists, perpetual/occasional/extra = 1 1 0
  (1) command create_bonds, occasional
      attributes: full, newton on
      pair build: full/bin
      stencil: full/bin/3d
      bin: standard
  (2) pair bpm/spring, perpetual
      attributes: half, newton on
      pair build: half/bin/newton
      stencil: half/bin/3d
      bin: standard
Added 13700 bonds, new total = 41100
Finding 1-2 1-3 1-4 neighbors ...
  special bond factors lj:    0        1        1       
  special bond factors coul:  0        1        1       
    17 = max # of 1-2 neighbors
   101 = max # of special neighbors
  special bonds CPU = 0.003 seconds
create_bonds    many c4 c4 4 0.0 1.5
Generated 0 of 6 mixed pair_coeff terms from geometric mixing rule
WARNING: Bonds are defined but no bond style is set (src/force.cpp:198)
WARNING: Likewise 1-2 special neighbor interactions != 1.0 (src/force.cpp:200)
Neighbor list info ...
  update: every = 1 steps, delay = 0 steps, check = yes
  max neighbors/atom: 2000, page size: 100000
  master list distance cutoff = 2
  ghost atom cutoff = 2.6
  binsize = 1, bins = 80 41 6
  2 neighbor lists, perpetual/occasional/extra = 1 1 0
  (1) command create_bonds, occasional
      attributes: full, newton on
      pair build: full/bin
      stencil: full/bin/3d
      bin: standard
  (2) pair bpm/spring, perpetual
      attributes: half, newton on
      pair build: half/bin/newton
      stencil: half/bin/3d
      bin: standard
Added 13700 bonds, new total = 54800
Finding 1-2 1-3 1-4 neighbors ...
  special bond factors lj:    0        1        1       
  special bond factors coul:  0        1        1       
    17 = max # of 1-2 neighbors
   101 = max # of special neighbors
  special bonds CPU = 0.006 seconds

neighbor        0.3 bin
special_bonds   lj 0.0 1.0 1.0 coul 1.0 1.0 1.0

bond_style      bpm/spring/plastic break no smooth no
bond_coeff      1 1.0 0 1.0 1.0
bond_coeff      2 1.0 0 1.0 0.022
bond_coeff      3 1.0 0 1.0 0.0185
bond_coeff      4 1.0 0 1.0 0.017

# apply load

region          anchor block EDGE EDGE EDGE 2.0 EDGE EDGE units box
region          load block EDGE EDGE 38.0 EDGE EDGE EDGE units box
group           anchor region anchor
536 atoms in group anchor
group           load region load
616 atoms in group load

variable        fload equal ramp(0.0,-0.0005)
fix             2 anchor setforce 0.0 0.0 0.0
fix             3 load addforce 0.0 0.0 v_fload
fix             4 all viscous 0.0016

compute         zmin1 c1 reduce min z
compute         zmin2 c2 reduce min z
compute         zmin3 c3 reduce min z
compute         zmin4 c4 reduce min z

thermo_style    custom step ke c_zmin1 c_zmin2 c_zmin3 c_zmin4
#dump            1 all custom 1000 atomDump id type x y z

run             30000

CITE-CITE-CITE-CITE-CITE-CITE-CITE-CITE-CITE-CITE-CITE-CITE-CITE

Your simulation uses code contributions which should be cited:

- BPM bond style: https://doi.org/10.1039/D3SM01373A

@Article{Clemmer2024,
 author =  {Clemmer, Joel T. and Monti, Joseph M. and Lechman, Jeremy B.},
 title =   {A soft departure from jamming: the compaction of deformable
            granular matter under high pressures},
 journal = {Soft Matter},
 year =    2024,
 volume =  20,
 number =  8,
 pages =   {1702--1718}
}

- BPM/spring/plastic bond style: https://doi.org/10.1016/j.powtec.2024.120563

@Article{Clemmer2025,
 author =  {Clemmer, Joel T. and Lechman, Jeremy B.},
 title =   {Onset and impact of plastic deformation in granular compaction},
 journal = {Powder Technology},
 year =    2025,
 volume =  452,
 number =  28,
 pages =   {120563}
}

CITE-CITE-CITE-CITE-CITE-CITE-CITE-CITE-CITE-CITE-CITE-CITE-CITE

Generated 0 of 6 mixed pair_coeff terms from geometric mixing rule
Neighbor list info ...
  update: every = 1 steps, delay = 0 steps, check = yes
  max neighbors/atom: 2000, page size: 100000
  master list distance cutoff = 1.3
  ghost atom cutoff = 2.6
  binsize = 0.65, bins = 124 62 8
  1 neighbor lists, perpetual/occasional/extra = 1 0 0
  (1) pair bpm/spring, perpetual
      attributes: half, newton on
      pair build: half/bin/newton
      stencil: half/bin/3d
      bin: standard
Per MPI rank memory allocation (min/avg/max) = 20.24 | 20.24 | 20.24 Mbytes
   Step         KinEng        c_zmin1        c_zmin2        c_zmin3        c_zmin4    
     20000   0             -2.501422      -2.501422      -2.501422      -2.501422     
     20100   1.3108286e-12 -2.501422      -2.501422      -2.501422      -2.501422     
     20200   1.7650233e-11 -2.501422      -2.501422      -2.501422      -2.501422     
     20300   7.7789234e-11 -2.5014222     -2.5014222     -2.5014222     -2.5014222    
     20400   2.1968181e-10 -2.5014209     -2.5014209     -2.5014209     -2.5014209    
     20500   4.8791919e-10 -2.501619      -2.501619      -2.501619      -2.501619     
     20600   9.3254832e-10 -2.502276      -2.502276      -2.502276      -2.502276     
     20700   1.6088778e-09 -2.5034008     -2.5034008     -2.5034008     -2.5034008    
     20800   2.5734911e-09 -2.5049161     -2.5049161     -2.5049161     -2.5049161    
     20900   3.8770909e-09 -2.5067682     -2.5067682     -2.5067682     -2.5067682    
     21000   5.5671331e-09 -2.5089792     -2.5089792     -2.5089792     -2.5089792    
     21100   7.6958383e-09 -2.511571      -2.511571      -2.511571      -2.511571     
     21200   1.0325191e-08 -2.5148522     -2.5148522     -2.5148522     -2.5148522    
     21300   1.3527957e-08 -2.5186652     -2.5186652     -2.5186652     -2.5186652    
     21400   1.7385911e-08 -2.5229451     -2.5229451     -2.5229451     -2.5229451    
     21500   2.1989148e-08 -2.5276811     -2.5276811     -2.5276811     -2.5276811    
     21600   2.743816e-08  -2.532855      -2.532855      -2.532855      -2.532855     
     21700   3.3842001e-08 -2.5384558     -2.5384558     -2.5384558     -2.5384558    
     21800   4.1310655e-08 -2.5444856     -2.5444856     -2.5444856     -2.5444856    
     21900   4.9946656e-08 -2.5509596     -2.5509596     -2.5509596     -2.5509596    
     22000   5.983995e-08  -2.5579031     -2.5579031     -2.5579031     -2.5579031    
     22100   7.1067435e-08 -2.565348      -2.565348      -2.565348      -2.565348     
     22200   8.3694857e-08 -2.5733304     -2.5733304     -2.5733304     -2.5733304    
     22300   9.7777187e-08 -2.5818877     -2.5818877     -2.5818877     -2.5818877    
     22400   1.1335855e-07 -2.5910569     -2.5910569     -2.5910569     -2.5910569    
     22500   1.3047459e-07 -2.6008712     -2.6008712     -2.6008712     -2.6008712    
     22600   1.4915669e-07 -2.6113567     -2.6113567     -2.6113567     -2.6113567    
     22700   1.6943492e-07 -2.6225345     -2.6225345     -2.6225345     -2.6225345    
     22800   1.9133733e-07 -2.6344265     -2.6344265     -2.6344265     -2.6344265    
     22900   2.14886e-07   -2.6470591     -2.6470591     -2.6470591     -2.6470591    
     23000   2.4009311e-07 -2.6604625     -2.6604625     -2.6604625     -2.6604625    
     23100   2.6695908e-07 -2.6746659     -2.6746659     -2.6746659     -2.6746659    
     23200   2.9547151e-07 -2.6896917     -2.6896917     -2.6896917     -2.6896917    
     23300   3.2560395e-07 -2.705552      -2.705552      -2.705552      -2.705552     
     23400   3.5731511e-07 -2.7222478     -2.7222478     -2.7222478     -2.7222478    
     23500   3.9054998e-07 -2.7397697     -2.7397697     -2.7397697     -2.7397697    
     23600   4.2524337e-07 -2.7581003     -2.7581003     -2.7581003     -2.7581003    
     23700   4.6132423e-07 -2.7772159     -2.7772159     -2.7772159     -2.7772159    
     23800   4.9871845e-07 -2.7970901     -2.7970901     -2.7970901     -2.7970901    
     23900   5.3734998e-07 -2.817697      -2.817697      -2.817697      -2.817697     
     24000   5.771412e-07  -2.8390144     -2.8390144     -2.8390144     -2.8390144    
     24100   6.1801301e-07 -2.8610251     -2.8610251     -2.8610251     -2.8610251    
     24200   6.5988449e-07 -2.883715      -2.883715      -2.883715      -2.883715     
     24300   7.0267118e-07 -2.90707       -2.90707       -2.90707       -2.90707      
     24400   7.4628267e-07 -2.9310745     -2.9310745     -2.9310745     -2.9310745    
     24500   7.9062082e-07 -2.9557115     -2.9557115     -2.9557115     -2.9557115    
     24600   8.3557945e-07 -2.9809645     -2.9809645     -2.9809645     -2.9809645    
     24700   8.8104506e-07 -3.00682       -3.00682       -3.00682       -3.00682      
     24800   9.2689784e-07 -3.033269      -3.033269      -3.033269      -3.033269     
     24900   9.730126e-07  -3.060308      -3.060308      -3.060308      -3.060308     
     25000   1.0192603e-06 -3.0879386     -3.0879386     -3.0879386     -3.0879386    
     25100   1.0655102e-06 -3.1161663     -3.1161663     -3.1161663     -3.1161663    
     25200   1.1116321e-06 -3.1449984     -3.1449984     -3.1449984     -3.1449984    
     25300   1.1574972e-06 -3.1744412     -3.1744412     -3.1744412     -3.1744412    
     25400   1.2029789e-06 -3.2044973     -3.2044973     -3.2044973     -3.2044973    
     25500   1.2479519e-06 -3.2351627     -3.2351627     -3.2351627     -3.2351627    
     25600   1.292292e-06  -3.2664272     -3.2664272     -3.2664272     -3.2664272    
     25700   1.3358763e-06 -3.2982753     -3.2982753     -3.2982753     -3.2982753    
     25800   1.3785826e-06 -3.3306878     -3.3306878     -3.3306878     -3.3306878    
     25900   1.4202893e-06 -3.3636436     -3.3636436     -3.3636436     -3.3636436    
     26000   1.4608753e-06 -3.39712       -3.39712       -3.39712       -3.39712      
     26100   1.5002218e-06 -3.4310927     -3.4310927     -3.4310927     -3.4310927    
     26200   1.5382139e-06 -3.465535      -3.465535      -3.465535      -3.465535     
     26300   1.5747434e-06 -3.5004169     -3.5004169     -3.5004169     -3.5004169    
     26400   1.6097098e-06 -3.5357052     -3.5357052     -3.5357052     -3.5357052    
     26500   1.6430223e-06 -3.5713636     -3.5713636     -3.5713636     -3.5713636    
     26600   1.6746002e-06 -3.6073535     -3.6073535     -3.6073535     -3.6073535    
     26700   1.7043734e-06 -3.6436358     -3.6436358     -3.6436358     -3.6436358    
     26800   1.7322818e-06 -3.6801732     -3.6801732     -3.6801732     -3.6801732    
     26900   1.7582734e-06 -3.716932      -3.716932      -3.716932      -3.716932     
     27000   1.7823035e-06 -3.753884      -3.753884      -3.753884      -3.753884     
     27100   1.8043327e-06 -3.7910058     -3.7910058     -3.7910058     -3.7910058    
     27200   1.8243261e-06 -3.828279      -3.828279      -3.828279      -3.828279     
     27300   1.8422539e-06 -3.8656879     -3.8656879     -3.8656879     -3.8656879    
     27400   1.858091e-06  -3.9032188     -3.9032188     -3.9032188     -3.9032188    
     27500   1.8718178e-06 -3.940859      -3.940859      -3.940859      -3.940859     
     27600   1.8834212e-06 -3.9785961     -3.9785961     -3.9785961     -3.9785961    
     27700   1.8928958e-06 -4.0164182     -4.0164182     -4.0164182     -4.0164182    
     27800   1.9002441e-06 -4.0543141     -4.0543141     -4.0543141     -4.0543141    
     27900   1.9054766e-06 -4.0922733     -4.0922733     -4.0922733     -4.0922733    
     28000   1.9086111e-06 -4.1302862     -4.1302862     -4.1302862     -4.1302862    
     28100   1.9096717e-06 -4.1683432     -4.1683432     -4.1683432     -4.1683432    
     28200   1.9086883e-06 -4.2064337     -4.2064337     -4.2064337     -4.2064337    
     28300   1.9056949e-06 -4.244545      -4.244545      -4.244545      -4.244545     
     28400   1.9007298e-06 -4.2826611     -4.2826611     -4.2826611     -4.2826611    
     28500   1.8938346e-06 -4.3207621     -4.3207621     -4.3207621     -4.3207621    
     28600   1.8850547e-06 -4.3588242     -4.3588242     -4.3588242     -4.3588242    
     28700   1.8744398e-06 -4.3968207     -4.3968207     -4.3968207     -4.3968207    
     28800   1.8620445e-06 -4.4347233     -4.4347233     -4.4347233     -4.4347233    
     28900   1.847929e-06  -4.472503      -4.472503      -4.472503      -4.472503     
     29000   1.8321592e-06 -4.5101315     -4.5101315     -4.5101315     -4.5101315    
     29100   1.8148069e-06 -4.5475819     -4.5475819     -4.5475819     -4.5475819    
     29200   1.7959492e-06 -4.5848289     -4.5848289     -4.5848289     -4.5848289    
     29300   1.7756678e-06 -4.6218488     -4.6218488     -4.6218488     -4.6218488    
     29400   1.7540483e-06 -4.6586196     -4.6586196     -4.6586196     -4.6586196    
     29500   1.7311784e-06 -4.695121      -4.695121      -4.695121      -4.695121     
     29600   1.7071473e-06 -4.7313345     -4.7313345     -4.7313345     -4.7313345    
     29700   1.6820443e-06 -4.767244      -4.767244      -4.767244      -4.767244     
     29800   1.6559584e-06 -4.8028361     -4.8028361     -4.8028361     -4.8028361    
     29900   1.6289776e-06 -4.8381014     -4.8381014     -4.8381014     -4.8381014    
     30000   1.6011887e-06 -4.8730336     -4.8730336     -4.8730336     -4.8730336    
     30100   1.5726773e-06 -4.90763       -4.90763       -4.90763       -4.90763      
     30200   1.5435278e-06 -4.9418903     -4.9418903     -4.9418903     -4.9418903    
     30300   1.5138237e-06 -4.9758161     -4.9758161     -4.9758161     -4.9758161    
     30400   1.4836472e-06 -5.0094092     -5.0094092     -5.0094092     -5.0094092    
     30500   1.4530795e-06 -5.0426713     -5.0426713     -5.0426713     -5.0426713    
     30600   1.4221998e-06 -5.0756029     -5.0756029     -5.0756029     -5.0756029    
     30700   1.3910892e-06 -5.1082033     -5.1082033     -5.1082033     -5.1082033    
     30800   1.3598314e-06 -5.1404706     -5.1404706     -5.1404706     -5.1404706    
     30900   1.328498e-06  -5.1724015     -5.1724015     -5.1724015     -5.1724014    
     31000   1.297156e-06  -5.2039918     -5.2039918     -5.2039918     -5.2039911    
     31100   1.2658686e-06 -5.2352367     -5.2352367     -5.2352367     -5.235234     
     31200   1.2347013e-06 -5.2661301     -5.2661301     -5.2661301     -5.2661222    
     31300   1.2037175e-06 -5.2966652     -5.2966652     -5.2966652     -5.2966467    
     31400   1.1729747e-06 -5.3268341     -5.3268341     -5.3268341     -5.3267984    
     31500   1.1425314e-06 -5.3566277     -5.3566277     -5.3566277     -5.3565682    
     31600   1.1124374e-06 -5.3860368     -5.3860368     -5.3860367     -5.3859491    
     31700   1.0827407e-06 -5.4150519     -5.4150519     -5.4150511     -5.4149335    
     31800   1.0534923e-06 -5.4436643     -5.4436643     -5.4436615     -5.4435115    
     31900   1.0247392e-06 -5.4718671     -5.4718671     -5.4718593     -5.4716759    
     32000   9.9652861e-07 -5.4996554     -5.4996554     -5.4996376     -5.4994273    
     32100   9.6890695e-07 -5.5270269     -5.5270269     -5.5269936     -5.526771     
     32200   9.4191281e-07 -5.5539823     -5.5539823     -5.5539281     -5.5537116    
     32300   9.1557618e-07 -5.5805246     -5.5805246     -5.5804461     -5.5802532    
     32400   8.8992394e-07 -5.6066593     -5.6066593     -5.606557      -5.6064065    
     32500   8.6498211e-07 -5.6323938     -5.6323938     -5.6322699     -5.6321838    
     32600   8.4076884e-07 -5.6577372     -5.6577372     -5.6575915     -5.6575935    
     32700   8.1730081e-07 -5.6826998     -5.6826998     -5.682531      -5.682645     
     32800   7.9459272e-07 -5.7072932     -5.7072932     -5.7071032     -5.7073515    
     32900   7.7265492e-07 -5.73153       -5.73153       -5.7313264     -5.7317268    
     33000   7.514948e-07  -5.7554235     -5.7554235     -5.7552197     -5.755786     
     33100   7.3111959e-07 -5.7789875     -5.7789875     -5.778799      -5.7795458    
     33200   7.1153796e-07 -5.8022356     -5.8022356     -5.8020774     -5.8030235    
     33300   6.9275112e-07 -5.8251812     -5.8251812     -5.8250718     -5.8262369    
     33400   6.747637e-07  -5.8478364     -5.8478364     -5.8477998     -5.8492021    
     33500   6.5757821e-07 -5.8702118     -5.8702118     -5.870275      -5.8719325    
     33600   6.4119219e-07 -5.8923168     -5.8923165     -5.8925055     -5.8944367    
     33700   6.2559752e-07 -5.9141587     -5.9141573     -5.9144957     -5.9167187    
     33800   6.1078585e-07 -5.9357437     -5.9357397     -5.9362512     -5.9387794    
     33900   5.967481e-07  -5.9570769     -5.9570673     -5.9577778     -5.9606197    
     34000   5.8347283e-07 -5.9781627     -5.9781435     -5.9790826     -5.9822441    
     34100   5.7094839e-07 -5.9990055     -5.9989725     -6.0001721     -6.0036616    
     34200   5.5916401e-07 -6.0196096     -6.0195597     -6.0210513     -6.0248805    
     34300   5.4811057e-07 -6.0399797     -6.0399124     -6.0417251     -6.0459043    
     34400   5.3778252e-07 -6.060121      -6.0600391     -6.0622005     -6.0667411    
     34500   5.2817482e-07 -6.0800394     -6.0799483     -6.0824854     -6.0874034    
     34600   5.1927975e-07 -6.0997419     -6.099648      -6.1025885     -6.1079036    
     34700   5.1108786e-07 -6.1192362     -6.119147      -6.1225178     -6.1282517    
     34800   5.0359088e-07 -6.1385316     -6.1384541     -6.1422811     -6.1484548    
     34900   4.9678093e-07 -6.1576387     -6.1575768     -6.1618875     -6.1685202    
     35000   4.906508e-07  -6.1765699     -6.1765238     -6.1813471     -6.1884593    
     35100   4.8519066e-07 -6.1953388     -6.1953089     -6.2006732     -6.2082877    
     35200   4.8039133e-07 -6.2139607     -6.2139508     -6.219881      -6.2280252    
     35300   4.7624536e-07 -6.2324516     -6.2324704     -6.238987      -6.2476948    
     35400   4.7274954e-07 -6.2508283     -6.2508886     -6.2580091     -6.2673187    
     35500   4.6989598e-07 -6.2691078     -6.2692258     -6.2769666     -6.2869178    
     35600   4.6767727e-07 -6.2873066     -6.2875008     -6.2958818     -6.3065119    
     35700   4.66083e-07   -6.3054408     -6.3057302     -6.3147719     -6.3261182    
     35800   4.6510657e-07 -6.3235257     -6.3239284     -6.3336508     -6.3457483    
     35900   4.6474069e-07 -6.3415756     -6.3421076     -6.352533      -6.3654136    
     36000   4.6497553e-07 -6.3596036     -6.3602767     -6.3714345     -6.3851273    
     36100   4.6580377e-07 -6.3776219     -6.3784451     -6.39037       -6.4048989    
     36200   4.672184e-07  -6.3956412     -6.3966259     -6.4093521     -6.4247361    
     36300   4.6921362e-07 -6.4136712     -6.4148291     -6.4283933     -6.4446501    
     36400   4.7178298e-07 -6.4317203     -6.4330647     -6.4475031     -6.4646568    
     36500   4.7491884e-07 -6.4497957     -6.4513437     -6.4666879     -6.4847701    
     36600   4.7861608e-07 -6.4679034     -6.4696725     -6.4859551     -6.504999     
     36700   4.8286836e-07 -6.4860488     -6.4880538     -6.5053129     -6.5253497    
     36800   4.8767015e-07 -6.5042365     -6.5064906     -6.5247678     -6.5458273    
     36900   4.9301743e-07 -6.5224711     -6.5249863     -6.5443258     -6.5664388    
     37000   4.9890683e-07 -6.5407571     -6.5435455     -6.5639924     -6.587189     
     37100   5.0533924e-07 -6.5590997     -6.5621759     -6.5837744     -6.6080785    
     37200   5.1231692e-07 -6.5775045     -6.5808862     -6.603679      -6.6291112    
     37300   5.198386e-07  -6.5959778     -6.5996853     -6.6237136     -6.6502975    
     37400   5.2790209e-07 -6.614527      -6.6185817     -6.643886      -6.6716509    
     37500   5.3650367e-07 -6.6331597     -6.6375839     -6.6642013     -6.6931832    
     37600   5.4564073e-07 -6.6518846     -6.6567017     -6.6846634     -6.7149034    
     37700   5.5531157e-07 -6.6707107     -6.6759455     -6.7052799     -6.7368224    
     37800   5.6551216e-07 -6.6896473     -6.6953255     -6.7260604     -6.758953     
     37900   5.7623635e-07 -6.7087042     -6.7148516     -6.7470127     -6.7813083    
     38000   5.8747878e-07 -6.7278912     -6.7345344     -6.7681445     -6.8039002    
     38100   5.9923347e-07 -6.747218      -6.7543852     -6.7894648     -6.8267404    
     38200   6.1150068e-07 -6.7666939     -6.7744157     -6.8109876     -6.8498376    
     38300   6.2427567e-07 -6.786328      -6.7946373     -6.832728      -6.8731984    
     38400   6.3755429e-07 -6.8061281     -6.8150608     -6.8546994     -6.8968324    
     38500   6.5133001e-07 -6.8261013     -6.8356947     -6.8769133     -6.920755     
     38600   6.6559539e-07 -6.8462534     -6.8565429     -6.8993786     -6.9449821    
     38700   6.803452e-07  -6.8665888     -6.8776063     -6.9221051     -6.9695212    
     38800   6.9557529e-07 -6.8871109     -6.8988845     -6.9451016     -6.9943729    
     38900   7.1127884e-07 -6.9078214     -6.9203771     -6.9683701     -7.019538     
     39000   7.2744517e-07 -6.9287213     -6.9420835     -6.9919109     -7.0450148    
     39100   7.4406795e-07 -6.9498105     -6.9640025     -7.0157281     -7.0708016    
     39200   7.6113858e-07 -6.971088      -6.9861329     -7.039828      -7.0968992    
     39300   7.786462e-07  -6.9925524     -7.0084768     -7.0642143     -7.1233077    
     39400   7.9657714e-07 -7.0142018     -7.0310333     -7.0888872     -7.1500277    
     39500   8.1491689e-07 -7.0360338     -7.0537995     -7.1138476     -7.1770606    
     39600   8.3365167e-07 -7.0580462     -7.0767747     -7.1390994     -7.2044123    
     39700   8.5277022e-07 -7.0802368     -7.0999621     -7.1646468     -7.2320892    
     39800   8.7226776e-07 -7.1026035     -7.1233661     -7.1904926     -7.2600932    
     39900   8.9213926e-07 -7.1251445     -7.1469883     -7.2166378     -7.2884205    
     40000   9.1237641e-07 -7.1478588     -7.1708298     -7.2430798     -7.3170667    
     40100   9.3296413e-07 -7.1707455     -7.1948936     -7.2698144     -7.3460306    
     40200   9.5388696e-07 -7.1938043     -7.2191823     -7.296842      -7.375311     
     40300   9.7513536e-07 -7.2170356     -7.2436918     -7.3241702     -7.4049062    
     40400   9.9671127e-07 -7.2404398     -7.2684194     -7.3518078     -7.4348237    
     40500   1.0186185e-06 -7.2640175     -7.2933683     -7.3797564     -7.4650761    
     40600   1.0408512e-06 -7.2877693     -7.3185439     -7.4080127     -7.4956742    
     40700   1.0633978e-06 -7.3116956     -7.3439523     -7.4365732     -7.5266275    
     40800   1.0862533e-06 -7.3357962     -7.369599      -7.4654351     -7.5579357    
     40900   1.109415e-06  -7.3600707     -7.395489      -7.4945992     -7.5895972    
     41000   1.1328772e-06 -7.3845179     -7.4216253     -7.5240672     -7.6216217    
     41100   1.1566296e-06 -7.4091359     -7.4480053     -7.5538417     -7.6540283    
     41200   1.1806691e-06 -7.433922      -7.4746229     -7.583925      -7.6868276    
     41300   1.2049916e-06 -7.4588728     -7.5014755     -7.6143227     -7.7200197    
     41400   1.2295837e-06 -7.4839838     -7.5285588     -7.6450431     -7.7536008    
     41500   1.2544345e-06 -7.5092499     -7.5558642     -7.676091      -7.7875713    
     41600   1.2795367e-06 -7.5346652     -7.583383      -7.7074644     -7.8219379    
     41700   1.3048952e-06 -7.5602231     -7.6111129     -7.7391579     -7.8567072    
     41800   1.3305078e-06 -7.5859165     -7.6390556     -7.771167      -7.8918827    
     41900   1.3563776e-06 -7.6117378     -7.6672119     -7.8034856     -7.9274632    
     42000   1.3825031e-06 -7.6376793     -7.6955798     -7.8361049     -7.9634438    
     42100   1.4088899e-06 -7.6637334     -7.7241559     -7.8690254     -7.999819     
     42200   1.4355433e-06 -7.6898924     -7.7529386     -7.9022545     -8.0365857    
     42300   1.4624671e-06 -7.716149      -7.7819279     -7.9357989     -8.0737411    
     42400   1.489653e-06  -7.7424962     -7.8111193     -7.9696598     -8.1112786    
     42500   1.5170967e-06 -7.7689275     -7.8405081     -8.0038301     -8.1491898    
     42600   1.5448041e-06 -7.7954368     -7.8700927     -8.0383065     -8.1874713    
     42700   1.5727835e-06 -7.8220186     -7.8998708     -8.0730939     -8.2261244    
     42800   1.6010354e-06 -7.8486675     -7.929839      -8.1082069     -8.265159     
     42900   1.6295608e-06 -7.875379      -7.9599971     -8.1436533     -8.3045898    
     43000   1.6583642e-06 -7.9021486     -7.990349      -8.1794308     -8.3444218    
     43100   1.687442e-06  -7.9289721     -8.0209031     -8.2155352     -8.3846516    
     43200   1.716791e-06  -7.9558458     -8.0516684     -8.2519644     -8.4252819    
     43300   1.7464207e-06 -7.9827656     -8.0826492     -8.2887196     -8.4663275    
     43400   1.7763627e-06 -8.0097276     -8.1138432     -8.3258062     -8.507799     
     43500   1.8066339e-06 -8.0367276     -8.1452436     -8.3632299     -8.5496984    
     43600   1.8372348e-06 -8.0637612     -8.1768457     -8.4009915     -8.5920283    
     43700   1.868163e-06  -8.0908235     -8.2086503     -8.4390879     -8.6347979    
     43800   1.8994227e-06 -8.1179093     -8.2406616     -8.4775152     -8.678019     
     43900   1.9310302e-06 -8.1450129     -8.2728781     -8.5162731     -8.7217052    
     44000   1.962995e-06  -8.1721281     -8.3052909     -8.5553592     -8.7658691    
     44100   1.9953154e-06 -8.1992484     -8.3378892     -8.5947677     -8.8105133    
     44200   2.0279897e-06 -8.226367      -8.3706687     -8.634492      -8.8556286    
     44300   2.0610306e-06 -8.2534769     -8.4036267     -8.6745268     -8.9012014    
     44400   2.0944615e-06 -8.2805709     -8.4367551     -8.7148783     -8.9472197    
     44500   2.1283017e-06 -8.3076419     -8.4700455     -8.7555645     -8.9936828    
     44600   2.1625521e-06 -8.3346826     -8.5034935     -8.7966017     -9.0406011    
     44700   2.1972175e-06 -8.3616861     -8.537096      -8.8379906     -9.087987     
     44800   2.2323159e-06 -8.3886459     -8.5708549     -8.8797241     -9.1358494    
     44900   2.2678796e-06 -8.4155555     -8.6047733     -8.9218054     -9.1841854    
     45000   2.3039401e-06 -8.4424093     -8.6388487     -8.9642477     -9.2329841    
     45100   2.3405344e-06 -8.4692019     -8.6730787     -9.0070576     -9.2822342    
     45200   2.3776756e-06 -8.4959286     -8.707462      -9.0502323     -9.3319243    
     45300   2.4153769e-06 -8.5225852     -8.7419936     -9.0937717     -9.3820456    
     45400   2.4536578e-06 -8.5491681     -8.7766678     -9.1376826     -9.4325833    
     45500   2.492541e-06  -8.5756742     -8.8114804     -9.181975      -9.4835191    
     45600   2.5320482e-06 -8.6021008     -8.8464313     -9.2266608     -9.5348485    
     45700   2.572201e-06  -8.6284454     -8.8815324     -9.2717538     -9.5865797    
     45800   2.6130038e-06 -8.654706      -8.9168025     -9.3172598     -9.6387304    
     45900   2.6544611e-06 -8.6808806     -8.9522505     -9.363171      -9.6913275    
     46000   2.6965897e-06 -8.7069675     -8.9878699     -9.4094751     -9.7443963    
     46100   2.7394075e-06 -8.7329646     -9.0236578     -9.45616       -9.7979598    
     46200   2.782945e-06  -8.7588703     -9.0596217     -9.5032199     -9.8520341    
     46300   2.8272373e-06 -8.7846823     -9.0957681     -9.5506583     -9.9066298    
     46400   2.8723139e-06 -8.8103987     -9.132102      -9.5984853     -9.9617573    
     46500   2.9181992e-06 -8.8360171     -9.1686293     -9.6467115     -10.01742     
     46600   2.9649178e-06 -8.861535      -9.2053506     -9.6953408     -10.073616    
     46700   3.0124901e-06 -8.8869497     -9.2422642     -9.7443632     -10.13034     
     46800   3.0609213e-06 -8.9122586     -9.2793731     -9.79377       -10.187587    
     46900   3.1102246e-06 -8.9374589     -9.3166779     -9.8435544     -10.245364    
     47000   3.1604297e-06 -8.9625477     -9.3541779     -9.893707      -10.303685    
     47100   3.211564e-06  -8.9875225     -9.3918764     -9.944217      -10.36257     
     47200   3.2636461e-06 -9.0123808     -9.4297793     -9.9950718     -10.422033    
     47300   3.3166898e-06 -9.0371203     -9.4678893     -10.046266     -10.482083    
     47400   3.370709e-06  -9.0617392     -9.5062026     -10.097812     -10.542724    
     47500   3.4257061e-06 -9.0862359     -9.5447149     -10.149725     -10.603952    
     47600   3.4816841e-06 -9.1106095     -9.5834191     -10.202025     -10.665762    
     47700   3.5386581e-06 -9.1348593     -9.6223027     -10.25473      -10.72815     
     47800   3.5966409e-06 -9.1589852     -9.6613574     -10.307864     -10.791104    
     47900   3.6556451e-06 -9.1829874     -9.7005836     -10.361444     -10.854617    
     48000   3.7157009e-06 -9.2068667     -9.7399846     -10.415483     -10.918679    
     48100   3.7768279e-06 -9.2306242     -9.7795667     -10.469989     -10.983281    
     48200   3.8390446e-06 -9.2542615     -9.8193438     -10.524971     -11.048422    
     48300   3.9023661e-06 -9.2777802     -9.8593329     -10.580434     -11.114104    
     48400   3.9667831e-06 -9.3011825     -9.8995491     -10.636381     -11.180323    
     48500   4.0322884e-06 -9.3244703     -9.9399967     -10.692812     -11.247071    
     48600   4.0988894e-06 -9.3476461     -9.9806749     -10.749722     -11.314348    
     48700   4.16659e-06   -9.3707119     -10.021588     -10.807113     -11.382158    
     48800   4.2353958e-06 -9.39367       -10.06274      -10.864995     -11.450498    
     48900   4.3053355e-06 -9.4165224     -10.104142     -10.923383     -11.519365    
     49000   4.3764347e-06 -9.4392711     -10.145801     -10.982288     -11.588756    
     49100   4.4487034e-06 -9.4619179     -10.187729     -11.04172      -11.65867     
     49200   4.5221461e-06 -9.4844646     -10.229934     -11.101686     -11.729113    
     49300   4.5967597e-06 -9.5069126     -10.272423     -11.162185     -11.8001      
     49400   4.6725361e-06 -9.5292635     -10.3152       -11.223202     -11.871642    
     49500   4.7494722e-06 -9.5515187     -10.358274     -11.284722     -11.94375     
     49600   4.82756e-06   -9.5736796     -10.401652     -11.34673      -12.016431    
     49700   4.9068051e-06 -9.5957477     -10.445342     -11.40922      -12.089689    
     49800   4.98722e-06   -9.6177245     -10.489343     -11.472199     -12.163525    
     49900   5.0688095e-06 -9.6396117     -10.533649     -11.535663     -12.23794     
     50000   5.1515961e-06 -9.6614111     -10.578253     -11.59961      -12.312942    
Loop time of 86.5575 on 1 procs for 30000 steps with 9576 atoms

Performance: 2994542.523 tau/day, 346.591 timesteps/s, 3.319 Matom-step/s
99.9% CPU use with 1 MPI tasks x 1 OpenMP threads

MPI task timing breakdown:
Section |  min time  |  avg time  |  max time  |%varavg| %total
---------------------------------------------------------------
Pair    | 5.284      | 5.284      | 5.284      |   0.0 |  6.10
Bond    | 74.938     | 74.938     | 74.938     |   0.0 | 86.58
Neigh   | 0.5494     | 0.5494     | 0.5494     |   0.0 |  0.63
Comm    | 0.11375    | 0.11375    | 0.11375    |   0.0 |  0.13
Output  | 0.067157   | 0.067157   | 0.067157   |   0.0 |  0.08
Modify  | 4.5109     | 4.5109     | 4.5109     |   0.0 |  5.21
Other   |            | 1.095      |            |       |  1.26

Nlocal:           9576 ave        9576 max        9576 min
Histogram: 1 0 0 0 0 0 0 0 0 0
Nghost:              0 ave           0 max           0 min
Histogram: 1 0 0 0 0 0 0 0 0 0
Neighs:          44700 ave       44700 max       44700 min
Histogram: 1 0 0 0 0 0 0 0 0 0

Total # of neighbors = 44700
Ave neighs/atom = 4.6679198
Ave special neighs/atom = 11.44528
Neighbor list builds = 67
Dangerous builds = 0

# hold load

unfix           3
fix             3 load addforce 0.0 0.0 -0.0005
run             50000
Generated 0 of 6 mixed pair_coeff terms from geometric mixing rule
Per MPI rank memory allocation (min/avg/max) = 20.78 | 20.78 | 20.78 Mbytes
   Step         KinEng        c_zmin1        c_zmin2        c_zmin3        c_zmin4    
     50000   5.1515961e-06 -9.6614111     -10.578253     -11.59961      -12.312942    
     50100   5.2328402e-06 -9.6831048     -10.62313      -11.664018     -12.388519    
     50200   5.3098167e-06 -9.7046214     -10.668204     -11.728824     -12.464599    
     50300   5.3825554e-06 -9.7259034     -10.713411     -11.793976     -12.541118    
     50400   5.4510936e-06 -9.746912      -10.758713     -11.859437     -12.618029    
     50500   5.5154927e-06 -9.7676156     -10.804076     -11.925167     -12.695298    
     50600   5.5758296e-06 -9.7879877     -10.849469     -11.991137     -12.772899    
     50700   5.6321637e-06 -9.8080069     -10.894867     -12.057314     -12.85081     
     50800   5.6845665e-06 -9.8276557     -10.940248     -12.123672     -12.929008    
     50900   5.7331136e-06 -9.8469191     -10.985592     -12.190194     -13.007468    
     51000   5.7778573e-06 -9.8657829     -11.030879     -12.256869     -13.086169    
     51100   5.818833e-06  -9.8842331     -11.076085     -12.32369      -13.16508     
     51200   5.8560892e-06 -9.9022523     -11.121201     -12.39065      -13.244171    
     51300   5.889683e-06  -9.9198225     -11.166215     -12.45774      -13.323418    
     51400   5.9196922e-06 -9.9369347     -11.211107     -12.524953     -13.402803    
     51500   5.9462059e-06 -9.9535932     -11.255862     -12.592277     -13.482304    
     51600   5.9693215e-06 -9.9698072     -11.300485     -12.659705     -13.561894    
     51700   5.9891703e-06 -9.9855813     -11.344985     -12.727231     -13.641558    
     51800   6.0058728e-06 -10.000911     -11.389371     -12.794854     -13.721299    
     51900   6.0195409e-06 -10.015784     -11.433658     -12.862571     -13.801119    
     52000   6.0302909e-06 -10.030182     -11.477857     -12.930378     -13.88101     
     52100   6.0382492e-06 -10.044085     -11.521968     -12.998269     -13.960955    
     52200   6.0435665e-06 -10.057471     -11.56599      -13.066227     -14.040947    
     52300   6.0463894e-06 -10.070316     -11.609917     -13.134227     -14.120981    
     52400   6.0468602e-06 -10.082599     -11.653746     -13.202246     -14.201042    
     52500   6.0451064e-06 -10.094296     -11.697471     -13.27027      -14.281104    
     52600   6.041259e-06  -10.105387     -11.741086     -13.338289     -14.361148    
     52700   6.0354414e-06 -10.115857     -11.784585     -13.406297     -14.441159    
     52800   6.0277544e-06 -10.125684     -11.827962     -13.474275     -14.521123    
     52900   6.018283e-06  -10.134848     -11.8712       -13.542197     -14.601027    
     53000   6.0070912e-06 -10.143322     -11.914271     -13.610041     -14.680862    
     53100   5.9942482e-06 -10.151085     -11.957147     -13.677785     -14.76062     
     53200   5.9798251e-06 -10.158119     -11.999803     -13.745404     -14.840297    
     53300   5.9638934e-06 -10.16442      -12.042213     -13.81288      -14.919892    
     53400   5.9465237e-06 -10.169992     -12.084345     -13.880183     -14.99941     
     53500   5.9277957e-06 -10.174846     -12.126163     -13.947279     -15.078858    
     53600   5.9077765e-06 -10.179003     -12.167635     -14.014136     -15.158241    
     53700   5.8865278e-06 -10.182483     -12.208736     -14.080734     -15.237549    
     53800   5.8641309e-06 -10.185313     -12.249449     -14.147061     -15.316766    
     53900   5.8406673e-06 -10.187514     -12.289759     -14.213105     -15.395877    
     54000   5.8160005e-06 -10.189107     -12.329655     -14.278849     -15.474868    
     54100   5.7894722e-06 -10.190108     -12.369123     -14.344271     -15.55372     
     54200   5.7611884e-06 -10.19053      -12.408154     -14.409359     -15.632419    
     54300   5.7312696e-06 -10.190388     -12.446748     -14.474107     -15.710978    
     54400   5.69988e-06   -10.189695     -12.484905     -14.538512     -15.789434    
     54500   5.6671016e-06 -10.188469     -12.52262      -14.602569     -15.867766    
     54600   5.6329862e-06 -10.186725     -12.559892     -14.66627      -15.945942    
     54700   5.5975932e-06 -10.184478     -12.596722     -14.729608     -16.023974    
     54800   5.5609782e-06 -10.181739     -12.633116     -14.792581     -16.101875    
     54900   5.5232002e-06 -10.178515     -12.669081     -14.855198     -16.179661    
     55000   5.4843172e-06 -10.174809     -12.70462      -14.91747      -16.257322    
     55100   5.4443973e-06 -10.170625     -12.739741     -14.97941      -16.334796    
     55200   5.4035165e-06 -10.165961     -12.774448     -15.041026     -16.412004    
     55300   5.361739e-06  -10.160818     -12.80875      -15.102325     -16.48888     
     55400   5.3191275e-06 -10.155199     -12.842658     -15.163311     -16.565371    
     55500   5.2757367e-06 -10.149108     -12.87618      -15.223983     -16.64143     
     55600   5.2316662e-06 -10.142556     -12.909322     -15.284343     -16.718067    
     55700   5.1867825e-06 -10.135553     -12.942089     -15.344393     -16.794405    
     55800   5.1407234e-06 -10.128115     -12.974482     -15.404132     -16.870312    
     55900   5.093612e-06  -10.120257     -13.006505     -15.463564     -16.94576     
     56000   5.0455422e-06 -10.111997     -13.038155     -15.522693     -17.02074     
     56100   4.9965335e-06 -10.103356     -13.069424     -15.581523     -17.095257    
     56200   4.9461548e-06 -10.094359     -13.100301     -15.640056     -17.169272    
     56300   4.8944643e-06 -10.085032     -13.130779     -15.698289     -17.242756    
     56400   4.8415828e-06 -10.075408     -13.16085      -15.756235     -17.315731    
     56500   4.787632e-06  -10.06552      -13.190506     -15.813939     -17.388244    
     56600   4.7327081e-06 -10.055402     -13.219741     -15.871408     -17.460317    
     56700   4.6768978e-06 -10.045091     -13.248548     -15.928622     -17.531927    
     56800   4.6202563e-06 -10.034616     -13.27692      -15.985586     -17.603028    
     56900   4.5628348e-06 -10.024007     -13.304846     -16.042302     -17.673565    
     57000   4.5046803e-06 -10.013289     -13.332314     -16.098779     -17.743489    
     57100   4.4458767e-06 -10.00248      -13.359314     -16.155021     -17.812768    
     57200   4.3865222e-06 -9.9915978     -13.385836     -16.210994     -17.88139     
     57300   4.3266654e-06 -9.9806577     -13.411875     -16.266639     -17.949353    
     57400   4.2663568e-06 -9.9696735     -13.437427     -16.322124     -18.016656    
     57500   4.2057153e-06 -9.9586585     -13.462494     -16.37785      -18.083308    
     57600   4.1449259e-06 -9.9476257     -13.487078     -16.433131     -18.149338    
     57700   4.0840769e-06 -9.9365871     -13.511182     -16.487927     -18.214777    
     57800   4.0232203e-06 -9.9255537     -13.534812     -16.542209     -18.279641    
     57900   3.962406e-06  -9.9145349     -13.557972     -16.595963     -18.343935    
     58000   3.9016838e-06 -9.9035392     -13.580665     -16.649187     -18.407673    
     58100   3.841094e-06  -9.8925743     -13.602895     -16.701876     -18.470861    
     58200   3.7806964e-06 -9.8816484     -13.624669     -16.754021     -18.53349     
     58300   3.7205675e-06 -9.8707708     -13.645994     -16.805616     -18.595541    
     58400   3.660784e-06  -9.8599533     -13.666877     -16.856655     -18.657004    
     58500   3.6014307e-06 -9.8492103     -13.687326     -16.907141     -18.717884    
     58600   3.5424411e-06 -9.8385589     -13.707347     -16.957074     -18.778199    
     58700   3.4837578e-06 -9.8280186     -13.726946     -17.00645      -18.837976    
     58800   3.4254653e-06 -9.8176103     -13.746126     -17.055266     -18.897248    
     58900   3.3673249e-06 -9.8073557     -13.764894     -17.103537     -18.956056    
     59000   3.3092925e-06 -9.7972769     -13.783255     -17.151268     -19.014427    
     59100   3.2514072e-06 -9.7873958     -13.801218     -17.19845      -19.072382    
     59200   3.1937089e-06 -9.7777336     -13.818788     -17.245102     -19.129966    
     59300   3.1362392e-06 -9.7683111     -13.835972     -17.291246     -19.18721     
     59400   3.0789797e-06 -9.7591479     -13.852776     -17.336905     -19.244134    
     59500   3.0220254e-06 -9.750262      -13.869203     -17.382088     -19.300783    
     59600   2.9654431e-06 -9.7416695     -13.885254     -17.426797     -19.357204    
     59700   2.9092816e-06 -9.7333838     -13.900929     -17.471029     -19.413413    
     59800   2.8535886e-06 -9.7254148     -13.916227     -17.514766     -19.469387    
     59900   2.7984156e-06 -9.7177695     -13.931144     -17.557988     -19.525063    
     60000   2.7438025e-06 -9.7104513     -13.945679     -17.600677     -19.580344    
     60100   2.6897835e-06 -9.7034609     -13.959829     -17.642828     -19.635171    
     60200   2.6363845e-06 -9.6967973     -13.973591     -17.684442     -19.689519    
     60300   2.5836582e-06 -9.690458      -13.986962     -17.72553      -19.743362    
     60400   2.5316919e-06 -9.6844405     -13.999942     -17.766111     -19.796657    
     60500   2.4805354e-06 -9.6787423     -14.012528     -17.80621      -19.849358    
     60600   2.4302263e-06 -9.6733613     -14.024718     -17.845852     -19.901429    
     60700   2.3807998e-06 -9.6682957     -14.036511     -17.885062     -19.952848    
     60800   2.3322849e-06 -9.6635445     -14.04791      -17.923856     -20.003614    
     60900   2.2846962e-06 -9.6591066     -14.058915     -17.962237     -20.053703    
     61000   2.2380371e-06 -9.6549813     -14.06953      -18.000191     -20.10308     
     61100   2.1923199e-06 -9.6511685     -14.079759     -18.037694     -20.151729    
     61200   2.1475603e-06 -9.647669      -14.089607     -18.074717     -20.199671    
     61300   2.103757e-06  -9.6444846     -14.099082     -18.111235     -20.246955    
     61400   2.0609095e-06 -9.6416182     -14.10819      -18.147229     -20.29364     
     61500   2.0190145e-06 -9.6390742     -14.116938     -18.182686     -20.339776    
     61600   1.9780676e-06 -9.6368578     -14.125333     -18.217594     -20.385403    
     61700   1.9380633e-06 -9.6349746     -14.133382     -18.251944     -20.430562    
     61800   1.899e-06     -9.6334299     -14.141091     -18.285725     -20.475296    
     61900   1.86075e-06   -9.632228      -14.148465     -18.318933     -20.519649    
     62000   1.8231848e-06 -9.6313719     -14.155511     -18.351571     -20.563656    
     62100   1.7864249e-06 -9.6308627     -14.162236     -18.383643     -20.607344    
     62200   1.7504927e-06 -9.6306995     -14.168647     -18.415152     -20.650758    
     62300   1.7154022e-06 -9.6308791     -14.17475      -18.446099     -20.693949    
     62400   1.6811582e-06 -9.6313965     -14.18055      -18.476484     -20.736952    
     62500   1.6477649e-06 -9.6322446     -14.186056     -18.506313     -20.779845    
     62600   1.6152251e-06 -9.6334147     -14.19127      -18.535596     -20.822693    
     62700   1.5835243e-06 -9.6348962     -14.196198     -18.564338     -20.86549     
     62800   1.5526406e-06 -9.6366772     -14.200844     -18.592544     -20.908158    
     62900   1.5225585e-06 -9.6387445     -14.205211     -18.620222     -20.950621    
     63000   1.4932714e-06 -9.641084      -14.209304     -18.647395     -20.992818    
     63100   1.4647904e-06 -9.6436811     -14.213125     -18.674095     -21.034708    
     63200   1.4370991e-06 -9.6465217     -14.216677     -18.700356     -21.076266    
     63300   1.4101746e-06 -9.6495917     -14.219963     -18.72621      -21.117476    
     63400   1.383996e-06  -9.6528783     -14.222985     -18.751681     -21.158325    
     63500   1.3585426e-06 -9.65637       -14.225744     -18.776788     -21.198797    
     63600   1.3337921e-06 -9.6600561     -14.228239     -18.801543     -21.238863    
     63700   1.3097269e-06 -9.6639274     -14.230472     -18.825961     -21.278485    
     63800   1.2863369e-06 -9.6679757     -14.232444     -18.850053     -21.317625    
     63900   1.263617e-06  -9.6721935     -14.234154     -18.873823     -21.356249    
     64000   1.2415674e-06 -9.6765741     -14.235605     -18.897274     -21.394342    
     64100   1.2201951e-06 -9.681111      -14.236798     -18.920407     -21.431909    
     64200   1.1994939e-06 -9.6857984     -14.237736     -18.943226     -21.468972    
     64300   1.1794487e-06 -9.6906307     -14.238421     -18.965737     -21.50556     
     64400   1.1600427e-06 -9.6956025     -14.238856     -18.987941     -21.541698    
     64500   1.141209e-06  -9.7007084     -14.239045     -19.009838     -21.577409    
     64600   1.122689e-06  -9.7059428     -14.238992     -19.03142      -21.612713    
     64700   1.1044209e-06 -9.7112994     -14.238702     -19.052679     -21.647631    
     64800   1.0863943e-06 -9.7167712     -14.23818      -19.073604     -21.682193    
     64900   1.0685694e-06 -9.7223497     -14.237432     -19.094183     -21.716442    
     65000   1.0509085e-06 -9.7280251     -14.236463     -19.114404     -21.750391    
     65100   1.0334008e-06 -9.7337863     -14.235281     -19.134259     -21.784034    
     65200   1.0158917e-06 -9.7396208     -14.233888     -19.153756     -21.817376    
     65300   9.9828376e-07 -9.745515      -14.232293     -19.172909     -21.851772    
     65400   9.8060247e-07 -9.7514547     -14.230498     -19.191727     -21.8861      
     65500   9.6291558e-07 -9.7574251     -14.228507     -19.210225     -21.920241    
     65600   9.4527745e-07 -9.7634116     -14.226323     -19.228427     -21.954186    
     65700   9.2772068e-07 -9.7693997     -14.22395      -19.24635      -21.987921    
     65800   9.1026495e-07 -9.7753753     -14.221396     -19.263991     -22.021457    
     65900   8.9292001e-07 -9.7813251     -14.218665     -19.281326     -22.054811    
     66000   8.7553179e-07 -9.7872367     -14.215767     -19.298327     -22.087971    
     66100   8.5809314e-07 -9.7930988     -14.212708     -19.314981     -22.120894    
     66200   8.4062414e-07 -9.7989012     -14.209498     -19.331288     -22.15353     
     66300   8.2313917e-07 -9.8046349     -14.206144     -19.347257     -22.185863    
     66400   8.0564063e-07 -9.8102923     -14.202655     -19.362898     -22.217877    
     66500   7.8812279e-07 -9.8158671     -14.199039     -19.378221     -22.249556    
     66600   7.7058265e-07 -9.8213538     -14.195304     -19.393237     -22.280906    
     66700   7.5302456e-07 -9.8267481     -14.191456     -19.407959     -22.311931    
     66800   7.3534561e-07 -9.8320463     -14.187505     -19.422398     -22.342637    
     66900   7.1749151e-07 -9.8372449     -14.183459     -19.436563     -22.373026    
     67000   6.9949261e-07 -9.8423409     -14.179326     -19.450454     -22.403081    
     67100   6.8140758e-07 -9.8473311     -14.175116     -19.464074     -22.4328      
     67200   6.6330798e-07 -9.8522122     -14.170838     -19.477425     -22.462174    
     67300   6.4525387e-07 -9.8569808     -14.166499     -19.490515     -22.491176    
     67400   6.2727122e-07 -9.8616331     -14.16211      -19.50335      -22.519776    
     67500   6.0937811e-07 -9.8661649     -14.157677     -19.515938     -22.54795     
     67600   5.9159063e-07 -9.8705716     -14.15321      -19.52828      -22.575683    
     67700   5.7394021e-07 -9.874848      -14.148715     -19.540378     -22.602961    
     67800   5.5646159e-07 -9.8789884     -14.144201     -19.552232     -22.629769    
     67900   5.3918181e-07 -9.8829867     -14.139676     -19.563842     -22.656098    
     68000   5.2212337e-07 -9.8868361     -14.135146     -19.575205     -22.681953    
     68100   5.0530732e-07 -9.8905297     -14.130619     -19.58632      -22.707339    
     68200   4.8874385e-07 -9.8940606     -14.1261       -19.597184     -22.732265    
     68300   4.7243733e-07 -9.8974221     -14.121597     -19.607795     -22.756731    
     68400   4.5639247e-07 -9.9006079     -14.117114     -19.618155     -22.780746    
     68500   4.40614e-07   -9.9036126     -14.112658     -19.628262     -22.804325    
     68600   4.2510691e-07 -9.9064318     -14.108234     -19.638118     -22.82749     
     68700   4.0987823e-07 -9.909062      -14.10385      -19.647721     -22.850266    
     68800   3.9493943e-07 -9.911501      -14.09951      -19.657072     -22.872673    
     68900   3.8030565e-07 -9.9137475     -14.095223     -19.666174     -22.894729    
     69000   3.6599384e-07 -9.9158016     -14.090994     -19.675029     -22.916445    
     69100   3.5201777e-07 -9.9176641     -14.086831     -19.683642     -22.93783     
     69200   3.3838941e-07 -9.9193369     -14.082739     -19.692017     -22.958886    
     69300   3.2511575e-07 -9.9208225     -14.078726     -19.700159     -22.979615    
     69400   3.1220004e-07 -9.922124      -14.074797     -19.708072     -23.000011    
     69500   2.99641e-07   -9.923245      -14.070957     -19.715758     -23.020064    
     69600   2.8742881e-07 -9.9241895     -14.067211     -19.723222     -23.039759    
     69700   2.7556335e-07 -9.9249614     -14.063564     -19.730469     -23.059085    
     69800   2.6404339e-07 -9.9255646     -14.06002      -19.737507     -23.07803     
     69900   2.5286771e-07 -9.9260031     -14.056583     -19.744341     -23.096589    
     70000   2.420342e-07  -9.9262801     -14.053257     -19.750978     -23.114754    
     70100   2.3154068e-07 -9.9263989     -14.050046     -19.757426     -23.132516    
     70200   2.2138388e-07 -9.9263621     -14.046955     -19.76369      -23.149869    
     70300   2.1155922e-07 -9.926172      -14.043985     -19.769776     -23.166804    
     70400   2.0206189e-07 -9.9258307     -14.041142     -19.775689     -23.183313    
     70500   1.9288672e-07 -9.9253396     -14.038425     -19.781433     -23.19939     
     70600   1.8402907e-07 -9.9247003     -14.03584      -19.78701      -23.215033    
     70700   1.7548439e-07 -9.9239142     -14.033386     -19.792421     -23.230245    
     70800   1.6724823e-07 -9.9229824     -14.031065     -19.797666     -23.245033    
     70900   1.5931712e-07 -9.9219063     -14.028879     -19.802748     -23.259407    
     71000   1.5168656e-07 -9.9206876     -14.026829     -19.807667     -23.273379    
     71100   1.4434123e-07 -9.9193282     -14.024914     -19.812425     -23.286961    
     71200   1.372586e-07  -9.9178306     -14.023137     -19.817023     -23.300167    
     71300   1.3042845e-07 -9.9161979     -14.021496     -19.821463     -23.313012    
     71400   1.2384969e-07 -9.9144339     -14.019993     -19.825745     -23.32552     
     71500   1.1752093e-07 -9.9125432     -14.018627     -19.829868     -23.33772     
     71600   1.114396e-07  -9.9105312     -14.017398     -19.833833     -23.349623    
     71700   1.0560084e-07 -9.9084038     -14.016307     -19.83764      -23.361234    
     71800   9.9997829e-08 -9.9061677     -14.015353     -19.84129      -23.37255     
     71900   9.4623007e-08 -9.90383       -14.014537     -19.844782     -23.383568    
     72000   8.9468632e-08 -9.9013983     -14.013857     -19.848118     -23.39428     
     72100   8.4526896e-08 -9.8988799     -14.013314     -19.8513       -23.404675    
     72200   7.9791568e-08 -9.8962826     -14.012906     -19.85433      -23.414739    
     72300   7.526014e-08  -9.8936137     -14.012633     -19.857212     -23.424455    
     72400   7.0931038e-08 -9.8908806     -14.012493     -19.859949     -23.433812    
     72500   6.6800171e-08 -9.8880901     -14.012484     -19.862546     -23.442801    
     72600   6.2862276e-08 -9.8852488     -14.012603     -19.865004     -23.451418    
     72700   5.9110778e-08 -9.8823628     -14.012849     -19.867328     -23.45966     
     72800   5.5538128e-08 -9.8794377     -14.013218     -19.86952      -23.467531    
     72900   5.2136426e-08 -9.8764787     -14.013708     -19.871584     -23.475042    
     73000   4.8897767e-08 -9.8734905     -14.014317     -19.873522     -23.482206    
     73100   4.5814631e-08 -9.8704773     -14.01504      -19.875338     -23.489033    
     73200   4.2880953e-08 -9.8674431     -14.015876     -19.877034     -23.495535    
     73300   4.0092527e-08 -9.8643915     -14.016821     -19.878615     -23.501724    
     73400   3.7445071e-08 -9.861326      -14.017872     -19.880084     -23.50761     
     73500   3.4934859e-08 -9.8582501     -14.019025     -19.881442     -23.513206    
     73600   3.2557962e-08 -9.855167      -14.020277     -19.882693     -23.518517    
     73700   3.0309608e-08 -9.8520803     -14.021623     -19.883839     -23.523546    
     73800   2.8184585e-08 -9.8489938     -14.023059     -19.884882     -23.528291    
[...]
    138600   1.0103678e-07 -2.4996702     -6.6249659     -13.304007     -17.750682    
    138700   9.5695237e-08 -2.4996261     -6.6168709     -13.296212     -17.743781    
    138800   9.0373685e-08 -2.4995894     -6.6089952     -13.288545     -17.736923    
    138900   8.5096058e-08 -2.4995594     -6.6013397     -13.280998     -17.730105    
    139000   7.9884499e-08 -2.4995354     -6.5939104     -13.273564     -17.723324    
    139100   7.4759765e-08 -2.4995164     -6.5867182     -13.266241     -17.716576    
    139200   6.9741694e-08 -2.4995013     -6.5797787     -13.259028     -17.70986     
    139300   6.4849606e-08 -2.4994889     -6.5731113     -13.251931     -17.703173    
    139400   6.0102496e-08 -2.499478      -6.5667384     -13.244955     -17.696516    
    139500   5.5518975e-08 -2.4994675     -6.5606843     -13.238115     -17.689892    
    139600   5.1116961e-08 -2.4994565     -6.5549739     -13.231423     -17.683308    
    139700   4.6913191e-08 -2.4994441     -6.5496315     -13.224899     -17.676772    
    139800   4.2922675e-08 -2.49943       -6.5446795     -13.218562     -17.670296    
    139900   3.9158208e-08 -2.4994138     -6.5401373     -13.212433     -17.663893    
    140000   3.5630053e-08 -2.4993956     -6.5360204     -13.206533     -17.657581    
    140100   3.2345842e-08 -2.4993757     -6.5323394     -13.200884     -17.651375    
    140200   2.9310725e-08 -2.4993546     -6.5290994     -13.195503     -17.645295    
    140300   2.6527714e-08 -2.4993331     -6.5263001     -13.190408     -17.639357    
    140400   2.3998138e-08 -2.4993119     -6.5239355     -13.185613     -17.633578    
    140500   2.1722125e-08 -2.4992923     -6.5219947     -13.181128     -17.627974    
    140600   1.9698988e-08 -2.4992751     -6.520462      -13.176957     -17.622557    
    140700   1.7927437e-08 -2.4992613     -6.5193185     -13.173105     -17.617338    
    140800   1.6405595e-08 -2.4992519     -6.5185424     -13.169568     -17.612326    
    140900   1.5130808e-08 -2.4992477     -6.5181108     -13.16634      -17.607525    
    141000   1.4099339e-08 -2.499249      -6.5180003     -13.163414     -17.602938    
    141100   1.3306016e-08 -2.4992564     -6.5181887     -13.160776     -17.598566    
    141200   1.2743963e-08 -2.4992698     -6.5186554     -13.158413     -17.594406    
    141300   1.2404484e-08 -2.4992892     -6.5193828     -13.15631      -17.590454    
    141400   1.2277132e-08 -2.4993141     -6.5203565     -13.154453     -17.586706    
    141500   1.2349978e-08 -2.4993439     -6.5215661     -13.152826     -17.583155    
    141600   1.2610012e-08 -2.499378      -6.523005      -13.151418     -17.579793    
    141700   1.3043605e-08 -2.4994153     -6.5246707     -13.150217     -17.576615    
    141800   1.3636945e-08 -2.499455      -6.526564      -13.149214     -17.573614    
    141900   1.4376361e-08 -2.4994962     -6.5286888     -13.148406     -17.570782    
    142000   1.5248506e-08 -2.4995379     -6.5310514     -13.147789     -17.568116    
    142100   1.6240356e-08 -2.4995792     -6.5336593     -13.147365     -17.565613    
    142200   1.7339081e-08 -2.4996195     -6.5365205     -13.147136     -17.56327     
    142300   1.8531813e-08 -2.4996581     -6.5396425     -13.147108     -17.561089    
    142400   1.9805416e-08 -2.4996948     -6.5430312     -13.147287     -17.55907     
    142500   2.1146307e-08 -2.4997292     -6.5466905     -13.147683     -17.557218    
    142600   2.2540409e-08 -2.4997614     -6.5506209     -13.148303     -17.555539    
    142700   2.3973259e-08 -2.4997916     -6.5548198     -13.149153     -17.554038    
    142800   2.5430248e-08 -2.4998203     -6.5592805     -13.150241     -17.552723    
    142900   2.6896963e-08 -2.4998479     -6.5639925     -13.151571     -17.551602    
    143000   2.8359556e-08 -2.4998751     -6.5689414     -13.153145     -17.550681    
    143100   2.9805069e-08 -2.4999026     -6.5741095     -13.154963     -17.549967    
    143200   3.1221649e-08 -2.4999311     -6.5794761     -13.157019     -17.549464    
    143300   3.2598628e-08 -2.4999614     -6.585018      -13.15931      -17.549174    
    143400   3.3926465e-08 -2.499994      -6.5907107     -13.161823     -17.549099    
    143500   3.5196574e-08 -2.5000294     -6.596529      -13.164549     -17.549238    
    143600   3.6401093e-08 -2.500068      -6.6024482     -13.167472     -17.549586    
    143700   3.7532666e-08 -2.5001098     -6.6084443     -13.170576     -17.550137    
    143800   3.8584271e-08 -2.500155      -6.6144956     -13.173844     -17.550884    
    143900   3.9549171e-08 -2.5002032     -6.6205827     -13.177258     -17.551818    
    144000   4.0420967e-08 -2.5002542     -6.6266893     -13.180801     -17.552928    
    144100   4.1193766e-08 -2.5003073     -6.6328024     -13.184454     -17.554203    
    144200   4.1862405e-08 -2.500362      -6.6389124     -13.188202     -17.555632    
    144300   4.2422695e-08 -2.5004413     -6.645013      -13.192031     -17.557203    
    144400   4.2871603e-08 -2.500578      -6.6511007     -13.195929     -17.558906    
    144500   4.3207356e-08 -2.5007135     -6.6571747     -13.199886     -17.560731    
    144600   4.3429417e-08 -2.5008459     -6.6632362     -13.203896     -17.562668    
    144700   4.3538355e-08 -2.5009738     -6.6692874     -13.207953     -17.56471     
    144800   4.3535637e-08 -2.5010957     -6.6753312     -13.212055     -17.566852    
    144900   4.3423383e-08 -2.5012107     -6.6813705     -13.216202     -17.569087    
    145000   4.3204137e-08 -2.5013182     -6.687407      -13.220395     -17.571412    
    145100   4.2880701e-08 -2.501665      -6.6934412     -13.224635     -17.573825    
    145200   4.2456063e-08 -2.5043801     -6.6994714     -13.228925     -17.576326    
    145300   4.1933409e-08 -2.5107115     -6.7054938     -13.233268     -17.578914    
    145400   4.1316228e-08 -2.5176656     -6.7115018     -13.237663     -17.581589    
    145500   4.0608447e-08 -2.5245123     -6.7174863     -13.242113     -17.584354    
    145600   3.9814579e-08 -2.5312845     -6.7234357     -13.246614     -17.587207    
    145700   3.8939817e-08 -2.5383294     -6.7293363     -13.251165     -17.590151    
    145800   3.7990059e-08 -2.545194      -6.7351724     -13.255758     -17.593184    
    145900   3.6971846e-08 -2.5518577     -6.7409271     -13.260388     -17.596306    
    146000   3.5892207e-08 -2.5583015     -6.7465829     -13.265044     -17.599514    
    146100   3.4758461e-08 -2.5645095     -6.7521223     -13.269716     -17.602804    
    146200   3.357799e-08  -2.5704685     -6.7575282     -13.274391     -17.60617     
    146300   3.2358047e-08 -2.576169      -6.7627849     -13.279055     -17.609606    
    146400   3.1105613e-08 -2.581605      -6.7678785     -13.283694     -17.613104    
    146500   2.9827342e-08 -2.5867742     -6.7727972     -13.288294     -17.616654    
    146600   2.852958e-08  -2.5916774     -6.7775319     -13.29284      -17.620245    
    146700   2.7218448e-08 -2.5963184     -6.7820761     -13.29732      -17.623867    
    146800   2.5899955e-08 -2.6007036     -6.7864262     -13.301722     -17.627509    
    146900   2.458011e-08  -2.6048411     -6.7905812     -13.306034     -17.631159    
    147000   2.3264987e-08 -2.6087398     -6.7945425     -13.310249     -17.634808    
    147100   2.1960742e-08 -2.6124093     -6.7983138     -13.314359     -17.638446    
    147200   2.0673548e-08 -2.6158586     -6.8019        -13.318361     -17.642064    
    147300   1.940948e-08  -2.6190957     -6.8053074     -13.322251     -17.645655    
    147400   1.8174358e-08 -2.622127      -6.8085427     -13.326029     -17.649213    
    147500   1.697359e-08  -2.6249571     -6.8116124     -13.329696     -17.652733    
    147600   1.5812037e-08 -2.6275881     -6.8145227     -13.333253     -17.656212    
    147700   1.4693934e-08 -2.6300197     -6.8172785     -13.336705     -17.659647    
    147800   1.3622877e-08 -2.6322495     -6.8198835     -13.340055     -17.663038    
    147900   1.2601869e-08 -2.6342729     -6.8223396     -13.343307     -17.666383    
    148000   1.1633421e-08 -2.6360836     -6.8246471     -13.346463     -17.669683    
    148100   1.0719671e-08 -2.6376738     -6.8268042     -13.349526     -17.672938    
    148200   9.8624902e-09 -2.6390352     -6.8288078     -13.352499     -17.67615     
    148300   9.0635652e-09 -2.6401595     -6.830653      -13.355381     -17.679318    
    148400   8.3244197e-09 -2.6410386     -6.8323338     -13.358171     -17.682444    
    148500   7.6463881e-09 -2.6416656     -6.8338436     -13.360866     -17.685526    
    148600   7.0305427e-09 -2.6420354     -6.8351752     -13.363464     -17.688563    
    148700   6.4775959e-09 -2.6421447     -6.8363217     -13.365958     -17.691555    
    148800   5.987803e-09  -2.641993      -6.8372768     -13.368342     -17.694497    
    148900   5.5608908e-09 -2.641582      -6.8380351     -13.37061      -17.697387    
    149000   5.1960297e-09 -2.6409163     -6.8385928     -13.372754     -17.700219    
    149100   4.8918578e-09 -2.6400031     -6.8389477     -13.374768     -17.702989    
    149200   4.6465549e-09 -2.6388518     -6.8390995     -13.376643     -17.705691    
    149300   4.4579498e-09 -2.637474      -6.8390501     -13.378374     -17.708317    
    149400   4.32364e-09   -2.6358826     -6.8388032     -13.379957     -17.710861    
    149500   4.2411015e-09 -2.6340919     -6.8383647     -13.381386     -17.713318    
    149600   4.2077658e-09 -2.6321165     -6.8377421     -13.38266      -17.715681    
    149700   4.2210543e-09 -2.6299709     -6.8369442     -13.383778     -17.717943    
    149800   4.2783685e-09 -2.6276693     -6.835981      -13.38474      -17.720102    
    149900   4.3770444e-09 -2.6252247     -6.8348633     -13.385549     -17.722153    
    150000   4.5142888e-09 -2.6226488     -6.8336019     -13.386209     -17.724093    
    150100   4.6871185e-09 -2.6199513     -6.8322075     -13.386724     -17.725922    
    150200   4.8923204e-09 -2.6171404     -6.8306904     -13.3871       -17.727638    
    150300   5.1264475e-09 -2.6142222     -6.8290597     -13.387344     -17.729243    
    150400   5.3858546e-09 -2.6112008     -6.8273237     -13.387463     -17.730738    
    150500   5.6667695e-09 -2.6080789     -6.8254889     -13.387465     -17.732125    
    150600   5.9653873e-09 -2.6048575     -6.8235607     -13.387355     -17.733409    
    150700   6.2779704e-09 -2.6015368     -6.8215429     -13.387141     -17.734591    
    150800   6.6009348e-09 -2.5981163     -6.8194379     -13.386827     -17.735675    
    150900   6.9309094e-09 -2.5945955     -6.817247      -13.386419     -17.736666    
    151000   7.2647577e-09 -2.590974      -6.8149706     -13.385919     -17.737565    
    151100   7.5995642e-09 -2.5872522     -6.8126083     -13.385331     -17.738376    
    151200   7.9325922e-09 -2.5834317     -6.8101595     -13.384654     -17.739101    
    151300   8.2612284e-09 -2.5795156     -6.8076237     -13.383891     -17.739742    
    151400   8.5829291e-09 -2.5755083     -6.8050007     -13.383039     -17.740299    
    151500   8.8951854e-09 -2.5714163     -6.8022909     -13.382098     -17.740774    
    151600   9.1955159e-09 -2.5672476     -6.7994957     -13.381066     -17.741165    
    151700   9.4814903e-09 -2.5630119     -6.7966178     -13.379942     -17.741473    
    151800   9.7507793e-09 -2.5587205     -6.793661      -13.378724     -17.741695    
    151900   1.000122e-08  -2.5543857     -6.7906305     -13.377411     -17.741831    
    152000   1.0230885e-08 -2.5500206     -6.7875329     -13.376003     -17.741878    
    152100   1.0438133e-08 -2.5456389     -6.7843758     -13.3745       -17.741835    
    152200   1.0621643e-08 -2.5412541     -6.7811682     -13.372905     -17.741701    
    152300   1.0780413e-08 -2.5368795     -6.7779197     -13.371219     -17.741474    
    152400   1.0913732e-08 -2.5325274     -6.7746404     -13.369447     -17.741154    
    152500   1.1021131e-08 -2.5282805     -6.7713407     -13.367594     -17.74074     
    152600   1.1102325e-08 -2.5242775     -6.768031      -13.365665     -17.740233    
    152700   1.1157158e-08 -2.5203199     -6.7647213     -13.363667     -17.739636    
    152800   1.1185562e-08 -2.5164137     -6.7614208     -13.361608     -17.738949    
    152900   1.1187543e-08 -2.5125635     -6.758138      -13.359495     -17.738177    
    153000   1.1163187e-08 -2.5088452     -6.75488       -13.357337     -17.737323    
    153100   1.1112687e-08 -2.5054656     -6.7516531     -13.35514      -17.736391    
    153200   1.1036383e-08 -2.5021528     -6.7484619     -13.352913     -17.735387    
    153300   1.0934806e-08 -2.5013298     -6.7453102     -13.350662     -17.734316    
    153400   1.0808698e-08 -2.5012689     -6.7422003     -13.348395     -17.733183    
    153500   1.0659031e-08 -2.5012093     -6.7391336     -13.346116     -17.731993    
    153600   1.0486984e-08 -2.5011516     -6.7361107     -13.34383      -17.730751    
    153700   1.0293917e-08 -2.5010964     -6.7331315     -13.34154      -17.729462    
    153800   1.0081314e-08 -2.5010441     -6.7301958     -13.33925      -17.72813     
    153900   9.8507326e-09 -2.500995      -6.7273031     -13.336961     -17.726759    
    154000   9.603749e-09  -2.5009494     -6.7244531     -13.334674     -17.725352    
    154100   9.3419247e-09 -2.5009073     -6.7216462     -13.332389     -17.723911    
    154200   9.0667861e-09 -2.5008687     -6.718883      -13.330108     -17.722439    
    154300   8.779827e-09  -2.5008334     -6.716165      -13.327828     -17.720936    
    154400   8.482526e-09  -2.5008011     -6.7134946     -13.325552     -17.719405    
    154500   8.176374e-09  -2.5007713     -6.710875      -13.323277     -17.717844    
    154600   7.8629004e-09 -2.5007437     -6.7083102     -13.321006     -17.716256    
    154700   7.5436915e-09 -2.5007177     -6.7058048     -13.318738     -17.71464     
    154800   7.2203939e-09 -2.5006929     -6.7033642     -13.316477     -17.712997    
    154900   6.8947007e-09 -2.5006688     -6.7009942     -13.314223     -17.711327    
    155000   6.5683215e-09 -2.5006451     -6.6987007     -13.31198      -17.709632    
    155100   6.2429431e-09 -2.5006213     -6.6964896     -13.309752     -17.707913    
    155200   5.9201867e-09 -2.5005974     -6.6943667     -13.307543     -17.70617     
    155300   5.6015705e-09 -2.5005731     -6.6923371     -13.305358     -17.704407    
    155400   5.2884846e-09 -2.5005485     -6.6904056     -13.303203     -17.702627    
    155500   4.9821815e-09 -2.5005238     -6.6885757     -13.301084     -17.700831    
    155600   4.6837816e-09 -2.5004991     -6.6868504     -13.299004     -17.699024    
    155700   4.3942928e-09 -2.5004748     -6.6852316     -13.296971     -17.697211    
    155800   4.1146355e-09 -2.5004512     -6.6837199     -13.294989     -17.695394    
    155900   3.8456681e-09 -2.5004289     -6.6823152     -13.293062     -17.693579    
    156000   3.5882052e-09 -2.5004082     -6.6810164     -13.291195     -17.691771    
    156100   3.3430247e-09 -2.5003907     -6.6798215     -13.28939      -17.689973    
    156200   3.1108611e-09 -2.5003838     -6.6787281     -13.28765      -17.68819     
    156300   2.8923888e-09 -2.5003781     -6.6777331     -13.285977     -17.686426    
    156400   2.6881959e-09 -2.5003736     -6.6768334     -13.284372     -17.684684    
    156500   2.498759e-09  -2.5003706     -6.6760256     -13.282834     -17.682968    
    156600   2.3244213e-09 -2.500369      -6.6753067     -13.281363     -17.68128     
    156700   2.165381e-09  -2.5003687     -6.6746738     -13.279958     -17.679622    
    156800   2.0216917e-09 -2.5003698     -6.6741246     -13.278618     -17.677996    
    156900   1.8932757e-09 -2.5003722     -6.6736573     -13.27734      -17.676402    
    157000   1.7799458e-09 -2.5003756     -6.6732706     -13.276124     -17.674841    
    157100   1.681432e-09  -2.50038       -6.6729641     -13.274968     -17.673313    
    157200   1.5974074e-09 -2.5003851     -6.6727376     -13.273869     -17.671819    
    157300   1.5275081e-09 -2.5003919     -6.6725917     -13.272828     -17.670358    
    157400   1.4713436e-09 -2.5004065     -6.6725274     -13.271844     -17.66893     
    157500   1.4284974e-09 -2.5004216     -6.6725457     -13.270916     -17.667534    
    157600   1.3985183e-09 -2.500437      -6.672648      -13.270045     -17.666172    
    157700   1.380906e-09  -2.5004523     -6.6728356     -13.269231     -17.664842    
    157800   1.3750967e-09 -2.5004674     -6.6731094     -13.268477     -17.663546    
    157900   1.380452e-09  -2.5004822     -6.6734701     -13.267783     -17.662284    
    158000   1.396255e-09  -2.5004967     -6.6739177     -13.267152     -17.661057    
    158100   1.4217164e-09 -2.500511      -6.6744519     -13.266586     -17.659867    
    158200   1.4559884e-09 -2.5005251     -6.6750715     -13.266086     -17.658715    
    158300   1.4981867e-09 -2.5005394     -6.6757745     -13.265655     -17.657603    
    158400   1.5474132e-09 -2.5005541     -6.6765583     -13.265294     -17.656533    
    158500   1.6027787e-09 -2.5005694     -6.6774197     -13.265004     -17.655508    
    158600   1.6634193e-09 -2.5005858     -6.6783546     -13.264787     -17.654529    
    158700   1.7285062e-09 -2.5006033     -6.6793588     -13.264641     -17.653598    
    158800   1.7972456e-09 -2.5006224     -6.6804275     -13.264568     -17.652718    
    158900   1.8688735e-09 -2.5006432     -6.6815555     -13.264565     -17.651891    
    159000   1.9426444e-09 -2.5006658     -6.682738      -13.264632     -17.651117    
    159100   2.0178213e-09 -2.5006904     -6.6839698     -13.264765     -17.650398    
    159200   2.0936667e-09 -2.5007168     -6.6852462     -13.264964     -17.649734    
    159300   2.1694407e-09 -2.5007451     -6.6865628     -13.265224     -17.649126    
    159400   2.2444048e-09 -2.500775      -6.6879156     -13.265543     -17.648574    
    159500   2.3178331e-09 -2.5008063     -6.6893012     -13.265917     -17.648076    
    159600   2.3890265e-09 -2.5008387     -6.6907166     -13.266343     -17.647632    
    159700   2.4573301e-09 -2.5008719     -6.6921594     -13.266817     -17.647241    
    159800   2.5221468e-09 -2.5009055     -6.6936278     -13.267338     -17.646901    
    159900   2.5829484e-09 -2.5009393     -6.6951203     -13.267901     -17.64661     
    160000   2.6392788e-09 -2.5009728     -6.6966359     -13.268504     -17.646368    
Loop time of 111.832 on 1 procs for 60000 steps with 9576 atoms

Performance: 4635524.107 tau/day, 536.519 timesteps/s, 5.138 Matom-step/s
99.9% CPU use with 1 MPI tasks x 1 OpenMP threads

MPI task timing breakdown:
Section |  min time  |  avg time  |  max time  |%varavg| %total
---------------------------------------------------------------
Pair    | 8.5048     | 8.5048     | 8.5048     |   0.0 |  7.60
Bond    | 91.405     | 91.405     | 91.405     |   0.0 | 81.73
Neigh   | 1.2998     | 1.2998     | 1.2998     |   0.0 |  1.16
Comm    | 0.17133    | 0.17133    | 0.17133    |   0.0 |  0.15
Output  | 0.12793    | 0.12793    | 0.12793    |   0.0 |  0.11
Modify  | 8.1589     | 8.1589     | 8.1589     |   0.0 |  7.30
Other   |            | 2.165      |            |       |  1.94

Nlocal:           9576 ave        9576 max        9576 min
Histogram: 1 0 0 0 0 0 0 0 0 0
Nghost:              0 ave           0 max           0 min
Histogram: 1 0 0 0 0 0 0 0 0 0
Neighs:          44692 ave       44692 max       44692 min
Histogram: 1 0 0 0 0 0 0 0 0 0

Total # of neighbors = 44692
Ave neighs/atom = 4.6670844
Ave special neighs/atom = 11.44528
Neighbor list builds = 160
Dangerous builds = 0
Total wall time: 0:04:58
