LAMMPS (10 Dec 2025 - Development)
OMP_NUM_THREADS environment is not set. Defaulting to 1 thread.
  using 1 OpenMP thread(s) per MPI task
package gpu 1
units           lj
dimension       3
boundary        m m m
atom_style      bpm/sphere
special_bonds   lj 0.0 1.0 1.0 coul 1.0 1.0 1.0
newton          on off
comm_modify     vel yes cutoff 3.3
region          box block -15 15 -15 15 0 60.0
create_box      1 box bond/types 1 extra/bond/per/atom 15 extra/special/per/atom 50
Created orthogonal box = (-15 -15 0) to (15 15 60)
  1 by 1 by 1 MPI processor grid

molecule        my_mol "rect.mol"
Read molecule template my_mol:
#Made with create_mol.py
  1 molecules
  0 fragments
  0 bodies
  63 atoms with max type 1
  297 bonds with max type 1
  0 angles with max type 0
  0 dihedrals with max type 0
  0 impropers with max type 0
region          wall_cyl cylinder z 0.0 0.0 10.0 EDGE EDGE side in
region          dropzone cylinder z 0.0 0.0 10.0 40.0 50.0 side in

pair_style      gran/hertz/history 1.0 NULL 0.5 NULL 0.1 1
bond_style      bpm/rotational break no smooth no
pair_coeff      1 1
bond_coeff      1 1.0 0.2 0.01 0.01 0.0 0.0 0.0 0.0 0.2 0.04 0.002 0.002

compute         nbond all nbond/atom
compute         tbond all reduce sum c_nbond
compute         bond_ids all property/local batom1 batom2
compute         bond_properties all bond/local dist b1

compute_modify  thermo_temp dynamic/dof yes

fix             1 all wall/gran hertz/history 1.0 NULL 0.5 NULL 0.1 1 zplane 0.0 NULL
fix             2 all wall/gran/region hertz/history 1.0 NULL 0.5 NULL 0.1 1 region wall_cyl
fix             3 all gravity 1e-4 vector 0 0 -1
fix             4 all deposit 40 0 1500 712511343 mol my_mol region dropzone near 2.0 vz -0.05 -0.05
fix             5 all nve/bpm/sphere

timestep        0.05
thermo_style    custom step ke pe pxx pyy pzz c_tbond
thermo          100
#dump            1 all custom 500 atomDump id radius x y z c_nbond mol
#dump            2 all local 500 bondDump c_bond_ids[*] c_bond_properties[*]
#dump_modify     2 colname 1 "id1" colname 2 "id2" colname 3 "r" colname 4 "r0"

run             100000

CITE-CITE-CITE-CITE-CITE-CITE-CITE-CITE-CITE-CITE-CITE-CITE-CITE

Your simulation uses code contributions which should be cited:

- GPU package (short-range, long-range and three-body potentials): https://doi.org/10.1016/j.cpc.2010.12.021, https://doi.org/10.1016/j.cpc.2011.10.012, https://doi.org/10.1016/j.cpc.2013.08.002, https://doi.org/10.1016/j.commatsci.2014.10.068, https://doi.org/10.1016/j.cpc.2016.10.020, https://doi.org/10.3233/APC200086

@Article{Brown11,
 author = {W. M. Brown and P. Wang and S. J. Plimpton and A. N. Tharrington},
 title = {Implementing Molecular Dynamics on Hybrid High Performance Computers---Short Range Forces},
 journal = {Comput.\ Phys.\ Commun.},
 year =    2011,
 volume =  182,
 pages =   {898--911},
 doi =     {10.1016/j.cpc.2010.12.021}
}

@Article{Brown12,
 author = {W. M. Brown and A. Kohlmeyer and S. J. Plimpton and A. N. Tharrington},
 title = {Implementing Molecular Dynamics on Hybrid High Performance Computers - Particle-Particle Particle-Mesh},
 journal = {Comput.\ Phys.\ Commun.},
 year =    2012,
 volume =  183,
 doi =     {10.1016/j.cpc.2011.10.012},
 pages =   {449--459}
}

@Article{Brown13,
 author = {W. M. Brown and Y. Masako},
 title = {Implementing Molecular Dynamics on Hybrid High Performance Computers---Three-Body Potentials},
 journal = {Comput.\ Phys.\ Commun.},
 year =    2013,
 volume =  184,
 pages =   {2785--2793},
 doi =     {10.1016/j.cpc.2013.08.002},
}

@Article{Trung15,
 author = {T. D. Nguyen and S. J. Plimpton},
 title = {Accelerating Dissipative Particle Dynamics Simulations for Soft Matter Systems},
 journal = {Comput.\ Mater.\ Sci.},
 year =    2015,
 doi =     {10.1016/j.commatsci.2014.10.068},
 volume =  100,
 pages =   {173--180}
}

@Article{Trung17,
 author = {T. D. Nguyen},
 title = {{GPU}-Accelerated {T}ersoff Potentials for Massively Parallel
    Molecular Dynamics Simulations},
 journal = {Comput.\ Phys.\ Commun.},
 year =    2017,
 doi =     {10.1016/j.cpc.2016.10.020},
 volume =  212,
 pages =   {113--122}
}

@inproceedings{Nikolskiy19,
 author = {V. Nikolskiy and V. Stegailov},
 title = {{GPU} Acceleration of Four-Site Water Models in {LAMMPS}},
 booktitle = {Proceedings of the International Conference on Parallel
    Computing (ParCo 2019), Prague, Czech Republic},
 doi =     {10.3233/APC200086},
 year =    2019
}

- BPM bond style: https://doi.org/10.1039/D3SM01373A

@Article{Clemmer2024,
 author =  {Clemmer, Joel T. and Monti, Joseph M. and Lechman, Jeremy B.},
 title =   {A soft departure from jamming: the compaction of deformable
            granular matter under high pressures},
 journal = {Soft Matter},
 year =    2024,
 volume =  20,
 number =  8,
 pages =   {1702--1718}
}

CITE-CITE-CITE-CITE-CITE-CITE-CITE-CITE-CITE-CITE-CITE-CITE-CITE

Generated 0 of 0 mixed pair_coeff terms from geometric mixing rule
Neighbor list info ...
  update: every = 1 steps, delay = 0 steps, check = yes
  max neighbors/atom: 2000, page size: 100000
  master list distance cutoff = 1.3
  ghost atom cutoff = 3.3
  binsize = 0.65, bins = 47 47 93
  1 neighbor lists, perpetual/occasional/extra = 1 0 0
  (1) pair gran/hertz/history, perpetual
      attributes: half, newton on, size, history
      pair build: half/size/bin/newton
      stencil: half/bin/3d
      bin: standard
Per MPI rank memory allocation (min/avg/max) = 7.455 | 7.455 | 7.455 Mbytes
   Step         KinEng         PotEng          Pxx            Pyy            Pzz          c_tbond    
         0  -0              0              0              0              0              0            
       100   0.0018406759   0              1.2842737e-05  1.3192741e-05  6.1270888e-06  9.4285714    
       200   0.0026054014   0             -9.5238084e-07  4.4390002e-07  2.276027e-06   9.4285714    
       300   0.0036876407   0             -5.2887136e-06  9.5842023e-06  8.3748246e-07  9.4285714    
       400   0.0060252036   0              2.3582937e-05  1.8361861e-05  1.2642656e-05  9.4285714    
       500   0.0074741299   0             -1.789193e-05   3.8580093e-06 -5.0297601e-06  9.4285714    
       600   0.0078175447   0              3.7847082e-06  1.354617e-05   4.1601827e-06  9.4285714    
       700   0.0075880478   0              3.1036029e-06  1.2109603e-05  4.9483946e-06  9.4285714    
       800   0.0074266449   0             -1.4461829e-05  1.231522e-05  -6.7784934e-06  9.4285714    
       900   0.0075837676   0              1.0006431e-05  1.2964224e-05  8.8504998e-06  9.4285714    
      1000   0.0076126304   0             -6.1355256e-06  1.265311e-05  -2.0447119e-06  9.4285714    
      1100   0.0075597634   0             -5.5773504e-06  1.0844777e-05 -3.296087e-06   9.4285714    
      1200   0.0075328709   0              7.0782206e-06  1.4050653e-05  8.5204975e-06  9.4285714    
      1300   0.0075974351   0             -4.7397195e-06  8.655509e-06  -3.6821711e-06  9.4285714    
      1400   0.0076539613   0              1.0961299e-06  7.9537258e-06  1.2313306e-06  9.4285714    
      1500   0.0076352731   0              3.6111676e-06  1.3125368e-05  5.3101288e-06  9.4285714    
      1600   0.006006423    0              4.7160229e-06  1.5369588e-05  5.0636281e-06  9.4285714    
      1700   0.0080558565   0              7.8138607e-06  2.5257606e-05  1.2709614e-05  9.4285714    
      1800   0.0087849017   0              4.7097929e-06  1.966114e-05   5.0951652e-07  9.4285714    
      1900   0.0087235023   0              4.7873946e-06  1.8019354e-05  2.2496878e-06  9.4285714    
      2000   0.0087131313   0              6.1634351e-06  2.642983e-05   9.0915635e-06  9.4285714    
      2100   0.008427469    0              5.3623387e-06  2.1009078e-05  5.0556283e-06  9.4285714    
      2200   0.0083345607   0              9.7696141e-06  1.8720631e-05  1.0714556e-05  9.4285714    
      2300   0.0083235047   0              6.1986454e-06  1.9747014e-05  3.9220739e-06  9.4285714    
      2400   0.0082916184   0              5.3395802e-06  1.2889835e-05  6.1613557e-06  9.4285714    
      2500   0.0083652166   0              7.0237704e-06  1.8243183e-05  9.9892969e-06  9.4285714    
      2600   0.0083853283   0              4.1611558e-06  1.8566616e-05  5.5120232e-06  9.4285714    
      2700   0.0083229797   0              4.0701286e-06  1.7705798e-05  8.0682541e-06  9.4285714    
      2800   0.0074176723   0              1.1231842e-05  1.4199577e-05  1.0018115e-05  9.4285714    
      2900   0.0073053678   0              7.9279614e-06  1.2570524e-05  9.674908e-06   9.4285714    
      3000   0.0072005684   0              1.2447603e-05  1.7406357e-05  1.0520344e-05  9.4285714    
      3100   0.0048043541   0              2.8905501e-05  2.6265306e-05  1.5509895e-05  9.4285714    
      3200   0.0045874892   0              2.4366753e-05  2.0971745e-05  1.7512312e-05  9.4285714    
      3300   0.00479499     0              6.0213477e-06  1.2638209e-05  1.4128913e-05  9.4285714    
      3400   0.0048641255   0              2.1441835e-06  9.1775798e-06  1.2309026e-05  9.4285714    
      3500   0.0048481043   0              3.3249509e-06  1.0477521e-05  1.1741911e-05  9.4285714    
      3600   0.0048035761   0              3.8169024e-06  1.4538411e-05  1.2859131e-05  9.4285714    
      3700   0.0046219191   0              4.4420388e-06  1.0004242e-05  1.4136739e-05  9.4285714    
      3800   0.0046060044   0              7.9607263e-06  9.9082273e-06  1.5708136e-05  9.4285714    
      3900   0.0047638587   0              4.9188998e-06  1.3013033e-05  1.2345204e-05  9.4285714    
      4000   0.0049124607   0              5.6510434e-06  1.0154486e-05  1.8085305e-05  9.4285714    
      4100   0.0047106573   0              8.7061818e-06  1.0447188e-05  1.5757898e-05  9.4285714    
      4200   0.003655308    0              3.3017508e-05  3.8729974e-05  1.4755823e-05  9.4285714    
      4300   0.0032761502   0              2.6270899e-05  2.6447932e-05  2.6415843e-05  9.4285714    
      4400   0.0033725658   0             -4.4338353e-06 -1.8747385e-06  1.268695e-05   9.4285714    
      4500   0.0034856288   0              4.2831181e-06  3.3568464e-06  1.6551102e-05  9.4285714    
      4600   0.0030478282   0              4.6046246e-06  5.3455536e-06  2.3135532e-05  9.4285714    
      4700   0.0031168245   0             -2.3364453e-06  1.7443067e-06  6.045743e-06   9.4285714    
      4800   0.0031397141   0              3.3093288e-06  3.9055709e-06  1.3666494e-05  9.4285714    
      4900   0.0030578915   0              6.03559e-06    8.7494434e-06  1.7257175e-05  9.4285714    
      5000   0.0030452045   0              5.7724443e-06  1.607533e-05   7.5387151e-06  9.4285714    
      5100   0.0030773764   0              7.3897289e-06  2.1460967e-05  1.0105443e-05  9.4285714    
      5200   0.0030534891   0              7.3340936e-06  2.0052503e-05  8.0875477e-06  9.4285714    
      5300   0.0030589672   0              6.9554983e-06  1.1388616e-05  1.4195538e-05  9.4285714    
      5400   0.0032172786   0              7.0973327e-06  8.4663925e-06  1.0162239e-05  9.4285714    
      5500   0.0032559194   0              5.356583e-06   5.1852677e-06  3.4336808e-06  9.4285714    
      5600   0.0031908895   0              4.6499293e-06  2.8091097e-06  1.8285395e-05  9.4285714    
      5700   0.0032642757   0              5.7093879e-06  4.822429e-06   1.6427643e-05  9.4285714    
      5800   0.0030990615   0              8.2537274e-06  1.0455638e-06  1.659029e-05   9.4285714    
      5900   0.0026341939   0              8.4035315e-06  2.0755721e-06  4.1054501e-05  9.4285714    
      6000   0.0027655242   0              4.2483634e-06  5.4168007e-06  1.9470692e-05  9.4285714    
      6100   0.0026042044   0              3.670902e-06   3.4725771e-06  2.1091794e-05  9.4285714    
      6200   0.0028149804   0              4.7213592e-06 -7.2919282e-07  2.3223456e-05  9.4285714    
      6300   0.0027103158   0             -6.2559437e-06  1.1706147e-06  1.7446498e-05  9.4285714    
      6400   0.0034563482   0              1.3811125e-05  3.3362683e-05  3.6303419e-05  9.4285714    
      6500   0.0039685735   0              3.9092296e-06  1.7179813e-05  2.1443394e-05  9.4285714    
      6600   0.0040730075   0             -1.730953e-05   1.0027223e-05  1.967481e-05   9.4285714    
      6700   0.0040325237   0              1.6130719e-05  2.6480155e-05  3.2469986e-05  9.4285714    
      6800   0.0038015372   0             -9.5613177e-06  7.8642292e-06  1.7383877e-05  9.4285714    
      6900   0.0036803202   0              3.3124034e-06  2.8618724e-05  2.7477522e-05  9.4285714    
      7000   0.0033569979   0              1.6030635e-05  5.6277841e-05  4.9488628e-05  9.4285714    
      7100   0.0032876107   0             -9.0485051e-06  3.6383737e-05  2.8925748e-05  9.4285714    
      7200   0.0033908789   0              1.5638438e-05  2.0197609e-05  2.8351014e-05  9.4285714    
      7300   0.0035973172   0             -2.0912015e-06  3.6426312e-05  2.4620627e-05  9.4285714    
      7400   0.0036958962   0             -1.3556805e-05  1.1980603e-06  2.2187657e-05  9.4285714    
      7500   0.0037303282   0              1.019358e-05   5.0014968e-06  2.8719888e-05  9.4285714    
      7600   0.0033149916   0             -2.8759621e-06  1.780461e-05   2.7947196e-05  9.4285714    
      7700   0.0034044865   0              4.9316431e-06 -1.3625502e-06  3.0763568e-05  9.4285714    
      7800   0.0037019149   0              1.1189745e-05  6.7366533e-06  3.4816302e-05  9.4285714    
      7900   0.0040016102   0              8.7286599e-06  6.2720752e-06  3.2812711e-05  9.4285714    
      8000   0.0042965823   0              2.3411444e-05  3.1433133e-06  3.6061346e-05  9.4285714    
      8100   0.0049063753   0              2.7128565e-05  7.8650816e-06  3.9110887e-05  9.4285714    
      8200   0.0053524021   0              2.12025e-05    2.9333878e-07  2.5869295e-05  9.4285714    
      8300   0.0052649528   0              2.829196e-05   7.4220762e-06  3.2087371e-05  9.4285714    
      8400   0.0052972403   0              2.7200353e-05  1.1049251e-05  4.289512e-05   9.4285714    
      8500   0.0053915935   0              2.9502963e-05  2.9511499e-06  1.6795138e-05  9.4285714    
      8600   0.0053485581   0              3.3169978e-05  5.1868552e-06  2.9428884e-05  9.4285714    
      8700   0.0053414432   0              2.5011908e-05 -1.1061008e-06  4.2577101e-05  9.4285714    
      8800   0.0054352149   0              2.9763406e-05 -1.4099084e-06  1.8442013e-05  9.4285714    
      8900   0.0054817226   0              3.5732941e-05  1.2926928e-06  2.5512543e-05  9.4285714    
      9000   0.0054728461   0              2.7669858e-05 -1.8779559e-06  2.9398806e-05  9.4285714    
      9100   0.0048751494   0              2.6241102e-05  7.2474541e-07  3.5364646e-05  9.4285714    
      9200   0.0049235623   0              3.1465367e-05  1.8587669e-06  3.6884993e-05  9.4285714    
      9300   0.0049408639   0              3.0163037e-05  4.7937499e-06  2.2278557e-05  9.4285714    
      9400   0.0047722286   0              3.0651769e-05  2.0118874e-06  3.8611885e-05  9.4285714    
      9500   0.004531602    0              3.0764127e-05  3.0365717e-06  4.2239782e-05  9.4285714    
      9600   0.0044175792   0              1.6872325e-05  6.3060435e-06  3.5262608e-05  9.4285714    
      9700   0.0044167782   0              2.1136761e-05  5.018754e-06   4.607146e-05   9.4285714    
      9800   0.0045545638   0              1.9049762e-05  2.4071743e-08  4.896805e-05   9.4285714    
      9900   0.0047725617   0              3.8862137e-07 -9.2384837e-07  4.5715336e-05  9.4285714    
     10000   0.0047366384   0              9.9108302e-06  8.64959e-06    3.7838373e-05  9.4285714    
     10100   0.0045925429   0              1.6501456e-05  9.70185e-06    5.9118232e-05  9.4285714    
     10200   0.0045829044   0              2.3104532e-05  1.0151385e-05  5.5272534e-05  9.4285714    
     10300   0.0044545165   0              3.6515058e-05  2.122633e-05   4.0700398e-05  9.4285714    
     10400   0.0041971922   0              5.0801964e-05  8.0635585e-06  5.6192525e-05  9.4285714    
     10500   0.0042997418   0              3.4801704e-05  1.6066531e-05  5.1783335e-05  9.4285714    
     10600   0.0045718981   0              1.4755364e-06  1.5228806e-05  5.7583703e-05  9.4285714    
     10700   0.0054414967   0              3.9990019e-06  8.4499803e-06  5.5171885e-05  9.4285714    
     10800   0.0056085076   0              2.8633628e-06  6.2092201e-05  6.002252e-05   9.4285714    
     10900   0.0052604016   0              5.8779595e-06  7.9455014e-05  6.2139127e-05  9.4285714    
     11000   0.0053082441   0              9.165852e-06   3.4007612e-05  4.2130506e-05  9.4285714    
     11100   0.0051714794   0             -3.106563e-06   3.1123236e-05  3.7584395e-05  9.4285714    
     11200   0.0051148957   0              1.7374831e-06  5.4777947e-05  4.1123476e-05  9.4285714    
     11300   0.0053229224   0              7.3698472e-06  2.7007904e-05  4.1734229e-05  9.4285714    
     11400   0.0053758011   0              4.5797202e-06  1.138723e-05   3.8484693e-05  9.4285714    
     11500   0.0051526413   0              2.9815506e-06  4.0393589e-05  4.3663944e-05  9.4285714    
     11600   0.0050898777   0              9.2528055e-06  4.6193679e-05  3.9414288e-05  9.4285714    
     11700   0.0052834511   0              3.6915919e-06  1.5583062e-05  4.2291523e-05  9.4285714    
     11800   0.0053705654   0              5.0167872e-06  1.7777564e-05  5.2655105e-05  9.4285714    
     11900   0.005038774    0              7.9846186e-06  5.1767432e-05  5.2516307e-05  9.4285714    
     12000   0.0049088358   0              1.3229997e-05  3.8692052e-05  5.451387e-05   9.4285714    
     12100   0.0047131753   0              1.2151329e-05  1.5646139e-05  5.6905539e-05  9.4285714    
     12200   0.0047612378   0              7.2037118e-06  2.3541687e-05  5.1618791e-05  9.4285714    
     12300   0.0045291736   0              6.1042165e-06  4.7628982e-05  4.2697529e-05  9.4285714    
     12400   0.0046419824   0              1.6185497e-05  4.0805232e-05  6.3641317e-05  9.4285714    
     12500   0.0047344432   0              2.4764743e-06  1.8802634e-05  4.8520155e-05  9.4285714    
     12600   0.0045536662   0              4.4271861e-06  5.2628045e-05  5.2207058e-05  9.4285714    
     12700   0.0041503561   0              1.6357244e-05  6.4219802e-05  7.1176196e-05  9.4285714    
     12800   0.0040016029   0              1.1879605e-05  2.3353677e-05  5.6103258e-05  9.4285714    
     12900   0.004171103    0              9.7673897e-06  1.1371983e-05  5.769833e-05   9.4285714    
     13000   0.0042998958   0              3.178398e-06  -1.9279392e-06  4.7565929e-05  9.4285714    
     13100   0.0044022014   0              5.566893e-06   1.3933074e-05  5.0604821e-05  9.4285714    
     13200   0.0043552771   0              1.0149487e-05  2.4470587e-05  1.8274093e-05  9.4285714    
     13300   0.00450282     0              1.9030795e-06  1.2227586e-05  4.1965074e-05  9.4285714    
     13400   0.0045092684   0              2.9859391e-06  2.10147e-05    4.8962974e-05  9.4285714    
     13500   0.0041619696   0              7.7977793e-06  2.9009143e-05  4.2163215e-05  9.4285714    
     13600   0.0036824745   0              1.6182688e-05  2.5555514e-05  5.5692698e-05  9.4285714    
     13700   0.0034193769   0              7.2162867e-06  1.4255387e-05  7.209386e-05   9.4285714    
     13800   0.0036164856   0              5.3843211e-06  3.9591406e-05  7.073975e-05   9.4285714    
     13900   0.003857809    0              1.431379e-05   1.7378031e-05  4.5907545e-05  9.4285714    
     14000   0.0044935877   0              2.5495444e-05  1.014143e-05   4.5846528e-05  9.4285714    
     14100   0.0046832713   0              9.1104092e-06  1.8529158e-05  5.4273771e-05  9.4285714    
     14200   0.0044686569   0              1.6934698e-05  1.9350864e-05  6.4902786e-05  9.4285714    
     14300   0.0044797081   0              2.3124795e-05  3.6035367e-05  5.6198633e-05  9.4285714    
     14400   0.0046304598   0              1.351167e-05   5.7385218e-06  4.6890689e-05  9.4285714    
     14500   0.0046647073   0              9.4307296e-06  1.0367242e-05  5.0773986e-05  9.4285714    
     14600   0.0045014111   0              1.3956755e-05  2.938402e-05   6.0182997e-05  9.4285714    
     14700   0.004342392    0              2.3511816e-05  2.5269102e-05  6.2266363e-05  9.4285714    
     14800   0.0041117851   0              2.7295132e-05  2.8828343e-05  4.893365e-05   9.4285714    
     14900   0.0038091074   0              2.5620949e-05  3.9233194e-05  6.2321939e-05  9.4285714    
     15000   0.003732349    0              3.2540936e-05  3.9208448e-05  7.114079e-05   9.4285714    
     15100   0.003947876    0              4.5419935e-05  1.7695005e-05  6.4596901e-05  9.4285714    
     15200   0.0046789403   0              1.7092938e-05  1.3667908e-05  6.1202591e-05  9.4285714    
     15300   0.004936523    0              3.6248063e-05  1.3488369e-05  7.0851893e-05  9.4285714    
     15400   0.0048773922   0              4.7673166e-05  2.5974023e-05  5.5299114e-05  9.4285714    
     15500   0.0049573149   0              3.7779927e-05  1.9140418e-05  6.1162076e-05  9.4285714    
     15600   0.0049927436   0              2.0560766e-05  1.825139e-05   6.0988271e-05  9.4285714    
     15700   0.0048703916   0              3.3189947e-05  2.1607029e-05  6.4055422e-05  9.4285714    
     15800   0.0046293844   0              6.2944948e-05  1.8863196e-05  7.8874728e-05  9.4285714    
     15900   0.0044328506   0              3.5627385e-05  2.5340862e-05  0.00012458256  9.4285714    
     16000   0.0045283019   0              2.8554945e-05  1.8623511e-05  0.0001092446   9.4285714    
     16100   0.0045247346   0              4.4396364e-05  1.8292379e-05  5.7642072e-05  9.4285714    
     16200   0.0045236351   0              3.038703e-05   1.7555104e-05  5.4919538e-05  9.4285714    
     16300   0.0046088725   0              1.7967977e-05  2.0445841e-05  5.0372674e-05  9.4285714    
     16400   0.0043337401   0              5.4381803e-05  1.5302662e-05  6.2505334e-05  9.4285714    
     16500   0.0042687715   0              4.8872484e-05  1.2851884e-05  7.5358538e-05  9.4285714    
     16600   0.0039673926   0              7.0455679e-06  3.1074726e-05  5.9409947e-05  9.4285714    
     16700   0.003981999    0              4.0095596e-05  1.2175978e-05  7.5313862e-05  9.4285714    
     16800   0.0040030318   0              1.6647467e-05  2.387115e-05   7.1682315e-05  9.4285714    
     16900   0.0039453766   0              1.3492678e-05  3.6847378e-05  5.9312848e-05  9.4285714    
     17000   0.0040422195   0              4.3782051e-05  1.908773e-05   6.4892926e-05  9.4285714    
     17100   0.0042850072   0              1.7326721e-05  6.1383687e-05  7.2512945e-05  9.4285714    
     17200   0.0043992404   0              1.7726554e-05  2.6471786e-05  6.6950715e-05  9.4285714    
     17300   0.0044284626   0              2.9698795e-05  3.725154e-05   5.4556344e-05  9.4285714    
     17400   0.00434964     0              2.0535604e-05  2.944614e-05   5.613167e-05   9.4285714    
     17500   0.0041364124   0              7.5867672e-05  2.6194497e-05  6.5687543e-05  9.4285714    
     17600   0.0043163545   0              3.3078868e-05  3.8960573e-05  4.7978785e-05  9.4285714    
     17700   0.0042848141   0              1.87577e-05    2.1841322e-05  2.5035657e-05  9.4285714    
     17800   0.0042690785   0              6.6596293e-05  4.8300829e-05  5.0141789e-05  9.4285714    
     17900   0.004334191    0              1.122074e-05   3.1803198e-05  3.2237651e-05  9.4285714    
     18000   0.0035850028   0              3.2191507e-05  2.0254676e-05  3.5691261e-05  9.4285714    
     18100   0.0033744578   0              4.6704507e-05  4.6728949e-05  4.6116319e-05  9.4285714    
     18200   0.0033243804   0              1.7222346e-05  2.897259e-05   4.6692306e-05  9.4285714    
     18300   0.0034430168   0              3.3708905e-05  4.0578241e-05  4.1304115e-05  9.4285714    
     18400   0.0034771992   0              1.9020608e-05  2.1782396e-05  2.9481328e-05  9.4285714    
     18500   0.0034547329   0              1.0445057e-05  1.6107028e-05  4.0891741e-05  9.4285714    
     18600   0.0033938573   0              2.4916113e-05  4.6313699e-05  3.9147813e-05  9.4285714    
     18700   0.0034939035   0              6.7474516e-06  2.4195833e-05  3.4096606e-05  9.4285714    
     18800   0.0035298155   0              9.2616349e-06  2.0435429e-05  4.002757e-05   9.4285714    
     18900   0.0034538528   0              1.9668497e-05  3.4858524e-05  4.0536885e-05  9.4285714    
     19000   0.0034539268   0              6.0686539e-06  3.1622333e-05  4.2237045e-05  9.4285714    
     19100   0.0035174866   0              1.2903453e-05  2.9369698e-05  4.3879942e-05  9.4285714    
     19200   0.0033445169   0              2.5194587e-05  2.7843112e-05  3.3597432e-05  9.4285714    
     19300   0.0028023365   0              3.9299612e-05  3.4207998e-05  3.6810538e-05  9.4285714    
     19400   0.0028277749   0              5.0486259e-05  3.8846044e-05  5.1440734e-05  9.4285714    
     19500   0.003022501    0             -3.0880169e-06  2.3874083e-05  4.0212514e-05  9.4285714    
     19600   0.0029078497   0              1.3861636e-05  2.0584284e-05  4.0791959e-05  9.4285714    
     19700   0.0028081525   0              2.8761615e-05  3.7726224e-05  6.7205785e-05  9.4285714    
     19800   0.0026851727   0              1.392899e-05   2.3857557e-05  4.7386817e-05  9.4285714    
     19900   0.0026975303   0              3.4792654e-05  2.5430433e-05  5.4414545e-05  9.4285714    
     20000   0.0026687828   0              1.6822951e-05  3.9225471e-05  5.6975796e-05  9.4285714    
     20100   0.0026330949   0              1.103117e-05   2.2842587e-05  4.210269e-05   9.4285714    
     20200   0.0026679229   0              2.3880106e-05  2.2457597e-05  5.5007466e-05  9.4285714    
     20300   0.0026290064   0              9.4168574e-06  1.9491029e-05  2.7105733e-05  9.4285714    
     20400   0.0026753305   0              1.7137227e-05  2.4019968e-05  4.264434e-05   9.4285714    
     20500   0.0026964802   0              1.6968255e-05  3.0884448e-05  6.0285699e-05  9.4285714    
     20600   0.0026269556   0              9.6637802e-06  2.8908444e-05  4.9242622e-05  9.4285714    
     20700   0.0026201882   0              1.9069471e-05  3.6244237e-05  6.7513672e-05  9.4285714    
     20800   0.002636391    0              1.3051394e-05  2.8567496e-05  5.9239057e-05  9.4285714    
     20900   0.0026284898   0              1.5046691e-05  2.4296149e-05  4.6906052e-05  9.4285714    
     21000   0.0026299001   0              2.4963185e-05  3.1539414e-05  5.4683743e-05  9.4285714    
     21100   0.0026040077   0              2.7579329e-05  3.1375484e-05  5.8069715e-05  9.4285714    
     21200   0.002792747    0              3.1847739e-05  3.2011122e-05  6.3360637e-05  9.4285714    
     21300   0.0029465285   0              3.1967633e-05  2.9657538e-05  4.1015682e-05  9.4285714    
     21400   0.0029675031   0              2.6486675e-05  2.0314595e-05  3.7671776e-05  9.4285714    
     21500   0.0029127977   0              3.555424e-05   2.7429746e-05  5.5225654e-05  9.4285714    
     21600   0.0029213074   0              3.4938613e-05  2.9674674e-05  4.1150639e-05  9.4285714    
     21700   0.0028936745   0              2.8733735e-05  9.7467848e-06  3.730012e-05   9.4285714    
     21800   0.0028982252   0              3.1017706e-05  2.6455528e-05  5.2819371e-05  9.4285714    
     21900   0.0029688126   0              1.9867809e-05  2.2076499e-05  3.9825077e-05  9.4285714    
     22000   0.0029604305   0              1.7429644e-05  8.7238182e-06  3.6983906e-05  9.4285714    
     22100   0.0029222425   0              2.3025314e-05  2.8627015e-05  5.2683424e-05  9.4285714    
     22200   0.0029471911   0              1.8463922e-05  2.3707437e-05  4.6435531e-05  9.4285714    
     22300   0.0029823133   0              1.2807304e-05  1.7072322e-05  4.8349257e-05  9.4285714    
     22400   0.0029412972   0              1.6469461e-05  2.3471023e-05  5.692624e-05   9.4285714    
     22500   0.0028655363   0              2.2185807e-05  2.8243516e-05  5.5214414e-05  9.4285714    
     22600   0.0027708944   0              1.8329805e-05  4.5791688e-05  8.9419821e-05  9.4285714    
     22700   0.0028334755   0              1.079308e-05   1.5613188e-05  7.9818446e-05  9.4285714    
     22800   0.0030241851   0              1.7908701e-05  3.2890394e-05  6.5204875e-05  9.4285714    
     22900   0.0031285405   0              2.0081324e-05  4.0344822e-05  5.3956734e-05  9.4285714    
     23000   0.0030484177   0              1.0753087e-05  2.3987089e-05  6.6118588e-05  9.4285714    
     23100   0.0027836805   0              2.2852828e-05  2.3311333e-05  0.0001583703   9.4285714    
     23200   0.0029032018   0              2.7357698e-05  2.6839988e-05  0.00011387763  9.4285714    
     23300   0.0029059154   0              2.2163984e-05  2.8760503e-05  2.1219643e-05  9.4285714    
     23400   0.0029580735   0              2.2659533e-05  1.6277797e-05  7.6549692e-05  9.4285714    
     23500   0.002951976    0              2.6844471e-05  2.2942689e-05  4.0977022e-05  9.4285714    
     23600   0.0029233487   0              2.4737336e-05  2.7789802e-05  2.8888808e-05  9.4285714    
     23700   0.0028942593   0              1.9717362e-05  1.4944518e-05  7.5157405e-05  9.4285714    
     23800   0.0029112546   0              2.4731124e-05  1.2823597e-05  2.6838088e-05  9.4285714    
     23900   0.0029742991   0              2.3062536e-05  2.1169223e-05  4.3351304e-05  9.4285714    
     24000   0.0029354431   0              2.1277921e-05  2.5863184e-05  5.535381e-05   9.4285714    
     24100   0.0029424052   0              3.217608e-05   4.3505238e-05  4.8685245e-05  9.4285714    
     24200   0.0032340191   0              3.8060633e-05  6.7307149e-05  0.00011951939  9.4285714    
     24300   0.0034154607   0              3.4034039e-05  6.6804948e-05  0.00013624585  9.4285714    
     24400   0.0034577316   0              3.1551626e-05  6.0692016e-05  7.1714903e-05  9.4285714    
     24500   0.0035267336   0              3.011856e-05   6.4948907e-05  6.2583667e-05  9.4285714    
     24600   0.0034118314   0              4.4970419e-05  3.4359821e-05  4.4618074e-05  9.4285714    
     24700   0.0032946459   0              2.831313e-05   3.7507046e-05  5.6476722e-05  9.4285714    
     24800   0.0031192368   0              4.197152e-05   6.4416978e-05  6.4071546e-05  9.4285714    
     24900   0.0030984315   0              3.6108759e-05  5.4328714e-05  6.2752985e-05  9.4285714    
     25000   0.0031679718   0              1.7978772e-05  5.5001318e-05  3.5370046e-05  9.4285714    
     25100   0.0031262979   0              3.9312718e-05  3.5329442e-05  7.0256049e-05  9.4285714    
     25200   0.0031071714   0              2.1838272e-05  3.0008269e-05  2.3596977e-05  9.4285714    
     25300   0.0030480773   0              3.487783e-05   4.8368337e-05  4.2218348e-05  9.4285714    
     25400   0.0030708534   0              3.5308093e-05  3.5901181e-05  7.6631041e-05  9.4285714    
     25500   0.0030281995   0              1.4444733e-05  3.5011164e-05  1.9808095e-05  9.4285714    
     25600   0.002781838    0              3.5964808e-05  4.9488712e-05  3.4253053e-05  9.4285714    
     25700   0.0028846258   0              3.8993981e-05  4.1594469e-05  6.9275723e-05  9.4285714    
     25800   0.003041255    0              1.1126094e-05  5.607231e-05   8.560261e-05   9.4285714    
     25900   0.0033281239   0              2.5286564e-05  6.2379948e-05  8.1972812e-05  9.4285714    
     26000   0.0032697526   0              2.4115833e-05  6.1051646e-05  5.3267513e-05  9.4285714    
     26100   0.0032511412   0              3.5701813e-05  7.3847998e-05  7.9997177e-05  9.4285714    
     26200   0.0030492999   0              1.7495729e-05  4.7278626e-05  4.5228491e-05  9.4285714    
     26300   0.0030269811   0              2.8558393e-05  5.4642797e-05  5.4614563e-05  9.4285714    
     26400   0.0029396893   0              4.5108426e-05  6.1184531e-05  6.1714074e-05  9.4285714    
     26500   0.0028348441   0             -1.0994396e-06  4.7133612e-05  2.28489e-05    9.4285714    
     26600   0.0029536065   0              2.0785817e-05  5.6116397e-05  9.2606695e-05  9.4285714    
     26700   0.003030659    0              6.0074748e-06  4.7214079e-05  4.5095993e-05  9.4285714    
     26800   0.0028380601   0              3.239809e-06   3.4147473e-05  2.1213571e-05  9.4285714    
     26900   0.0027413866   0              4.1690271e-05  5.3569455e-05  0.00010209368  9.4285714    
     27000   0.0027144283   0              6.2600725e-06  3.4756244e-05  3.7833188e-05  9.4285714    
     27100   0.002745645    0              1.6821242e-05  3.7391514e-05  6.9180562e-05  9.4285714    
     27200   0.0029143421   0              2.696657e-05   4.4996201e-05  0.00010066255  9.4285714    
     27300   0.0029979032   0              1.5300995e-05  5.0468865e-05  2.7835131e-05  9.4285714    
     27400   0.0032274531   0              3.7061328e-05  6.1988303e-05  8.98181e-05    9.4285714    
     27500   0.0033894413   0              3.0026939e-05  5.2559396e-05  5.1805057e-05  9.4285714    
     27600   0.0033680839   0              3.0459032e-05  5.3392443e-05  2.4356736e-05  9.4285714    
     27700   0.003338702    0              3.2887879e-05  6.0193124e-05  9.5270208e-05  9.4285714    
     27800   0.0033193761   0              3.2689868e-05  5.8127733e-05  3.5993744e-05  9.4285714    
     27900   0.0031337822   0              5.2712142e-05  8.0280759e-05  5.8588334e-05  9.4285714    
     28000   0.0030013584   0              3.0238114e-05  7.019388e-05   8.4942136e-05  9.4285714    
     28100   0.0029774426   0              2.1706289e-05  4.2192966e-05  2.9825084e-05  9.4285714    
     28200   0.0030840876   0              3.9927071e-05  4.8161426e-05  7.1445005e-05  9.4285714    
     28300   0.0029055339   0              3.2265199e-05  6.0821336e-05  4.9730889e-05  9.4285714    
     28400   0.0026788957   0              2.5124019e-05  6.7721259e-05  6.9320744e-05  9.4285714    
     28500   0.0027944556   0              3.6999646e-05  4.5266382e-05  4.7086275e-05  9.4285714    
     28600   0.0030097728   0              3.5578205e-05  4.2525161e-05  1.1309518e-05  9.4285714    
     28700   0.0033241398   0              5.2626149e-05  4.8727248e-05  5.2999627e-05  9.4285714    
     28800   0.0032094961   0              5.6114066e-05  4.4576637e-05  5.6427328e-05  9.4285714    
     28900   0.0031644757   0              5.3045377e-05  4.0683657e-05  5.8406054e-05  9.4285714    
     29000   0.003107561    0              4.5153603e-05  3.8011257e-05  4.9873783e-05  9.4285714    
     29100   0.0029697961   0              4.2269687e-05  4.3756893e-05  6.0945025e-05  9.4285714    
     29200   0.0028686282   0              8.3311801e-05  4.2560245e-05  9.4488427e-05  9.4285714    
     29300   0.0029566275   0              5.340527e-05   2.0625643e-05  5.1467656e-05  9.4285714    
     29400   0.0029661167   0              3.8225602e-05  2.2955516e-05  6.2458869e-05  9.4285714    
     29500   0.0029100919   0              9.1273273e-05  4.5614718e-05  7.5820418e-05  9.4285714    
     29600   0.0027756908   0              5.4362304e-05  3.5874205e-06  6.1753873e-05  9.4285714    
     29700   0.0027100118   0              4.9615511e-05  1.8067908e-05  6.4226228e-05  9.4285714    
     29800   0.0027016716   0              9.4626441e-05  2.4715553e-05  6.5469732e-05  9.4285714    
     29900   0.0026666828   0              4.3530433e-05  1.9799481e-05  6.2564069e-05  9.4285714    
     30000   0.0027928546   0              6.6621011e-05  5.3017871e-05  6.0950158e-05  9.4285714    
     30100   0.0027657868   0              5.54703e-05    6.0155957e-05  7.7069534e-05  9.4285714    
     30200   0.0027108854   0              3.7170592e-05  5.5659932e-05  5.9827086e-05  9.4285714    
     30300   0.0027478852   0              6.7012278e-05  6.4421892e-05  5.59999e-05    9.4285714    
     30400   0.0027948474   0              4.197743e-05   3.4246756e-05  6.3182805e-05  9.4285714    
     30500   0.0027710614   0              4.1855435e-05  4.3489286e-05  4.7537376e-05  9.4285714    
     30600   0.0027441999   0              5.9055108e-05  4.1276412e-05  4.9081734e-05  9.4285714    
     30700   0.0025106194   0              7.5963029e-05  4.1657531e-05  5.1197327e-05  9.4285714    
     30800   0.0024230735   0              3.9711461e-05  5.1146402e-05  6.5578092e-05  9.4285714    
     30900   0.0024144718   0              5.9546755e-05  3.7520252e-05  5.784981e-05   9.4285714    
     31000   0.0024300885   0              3.8252236e-05  4.3270857e-05  4.6773264e-05  9.4285714    
     31100   0.0024918549   0              1.7308575e-05  4.3882727e-05  4.3265844e-05  9.4285714    
     31200   0.0025148854   0              3.7705779e-05  2.4503956e-05  4.4817607e-05  9.4285714    
     31300   0.0025065257   0              2.6093524e-05  3.163039e-05   2.2687253e-05  9.4285714    
     31400   0.0024784343   0              3.0815428e-05  3.4725645e-05  4.1991251e-05  9.4285714    
     31500   0.002492213    0              3.9899513e-05  3.2212092e-05  4.7821222e-05  9.4285714    
     31600   0.0024619269   0              2.3017179e-05  4.9691936e-05  3.8451197e-05  9.4285714    
     31700   0.0024759925   0              3.0121336e-05  4.3149085e-05  6.7077163e-05  9.4285714    
     31800   0.0023975909   0              3.9750142e-05  6.3708464e-05  8.0323934e-05  9.4285714    
     31900   0.0022520946   0              3.2182444e-05  8.0032273e-05  0.00010667467  9.4285714    
     32000   0.0022668746   0              4.5054455e-05  4.4424573e-05  9.4064787e-05  9.4285714    
     32100   0.0021541906   0              5.267749e-05   5.7105431e-05  8.4435512e-05  9.4285714    
     32200   0.0021024109   0              7.5758511e-05  7.1735438e-05  0.00011962816  9.4285714    
     32300   0.0022046585   0              4.4353541e-05  4.0537163e-05  6.9002575e-05  9.4285714    
     32400   0.0021734538   0              1.1777709e-05  4.2785035e-05  5.0665148e-05  9.4285714    
     32500   0.0021156328   0              5.9236258e-05  4.3485213e-05  9.7494097e-05  9.4285714    
     32600   0.0021433299   0              2.7361725e-05  2.2571277e-05  7.3418286e-05  9.4285714    
     32700   0.0021737198   0              9.8423154e-06  3.7310437e-05  7.6349033e-05  9.4285714    
     32800   0.0020732109   0              3.5923504e-05  2.1276076e-05  8.2285149e-05  9.4285714    
     32900   0.0018804371   0              4.1456232e-05  1.1322715e-05  6.9256052e-05  9.4285714    
     33000   0.0018315647   0              5.5716302e-05  3.9442355e-05  9.3525636e-05  9.4285714    
     33100   0.0019322271   0              1.7905636e-05  2.8531747e-05  7.1166041e-05  9.4285714    
     33200   0.0019499478   0              1.6746992e-05  1.2583518e-05  4.5890388e-05  9.4285714    
     33300   0.0019475334   0              6.928113e-05   3.2796251e-05  8.8709058e-05  9.4285714    
     33400   0.0020122557   0              2.3878354e-05  1.1894271e-05  6.7264804e-05  9.4285714    
     33500   0.001993609    0              5.6060582e-06  2.8218546e-05  4.143547e-05   9.4285714    
     33600   0.0019039948   0              3.8855915e-05  3.8923901e-05  7.160984e-05   9.4285714    
     33700   0.0018361663   0              4.0994976e-05  8.5065054e-06  6.116322e-05   9.4285714    
     33800   0.0018444084   0              3.8612017e-05  4.6404039e-05  8.3623648e-05  9.4285714    
     33900   0.0019074744   0              3.2543937e-05  2.4718644e-05  7.8794193e-05  9.4285714    
     34000   0.001859003    0              2.6460229e-05  2.8344767e-06  5.9404052e-05  9.4285714    
     34100   0.0017573985   0              3.9801903e-05  5.0839467e-05  9.4173284e-05  9.4285714    
     34200   0.0017750442   0              2.590863e-05   2.1839909e-05  8.9088703e-05  9.4285714    
     34300   0.0017626451   0              1.7662899e-05  1.4432759e-05  5.9095003e-05  9.4285714    
     34400   0.0017378453   0              4.0875066e-05  2.7000881e-05  7.4099521e-05  9.4285714    
     34500   0.0016969294   0              3.6636146e-05  8.3345999e-06  5.9595049e-05  9.4285714    
     34600   0.0017069429   0              2.506019e-05   3.7771069e-05  6.4344488e-05  9.4285714    
     34700   0.0016909003   0              2.8925143e-05  3.2595797e-05  8.3395117e-05  9.4285714    
     34800   0.0016777511   0              3.1036398e-05  1.5347312e-05  4.7237241e-05  9.4285714    
     34900   0.0016073019   0              2.9861081e-05  2.4220943e-05  6.2415487e-05  9.4285714    
     35000   0.0016727319   0              3.3028857e-05  1.9466402e-05  7.1560173e-05  9.4285714    
     35100   0.0015798067   0              2.810628e-05   1.1227549e-05  3.3910006e-05  9.4285714    
     35200   0.0014226851   0              4.9948631e-05  3.2517617e-05  7.7461787e-05  9.4285714    
     35300   0.0014142865   0              3.7794174e-05  2.1146826e-05  7.109735e-05   9.4285714    
     35400   0.001490384    0              1.1420072e-05  9.1665922e-06  4.8550064e-05  9.4285714    
     35500   0.0015308563   0              3.2803184e-05  1.7388492e-05  6.9367018e-05  9.4285714    
     35600   0.0014577816   0              2.9206023e-05  2.4481193e-05  4.9761964e-05  9.4285714    
     35700   0.0014895217   0              1.872642e-05   2.4168905e-05  4.9821823e-05  9.4285714    
     35800   0.001507082    0              2.0010771e-05  5.5090329e-06  7.289927e-05   9.4285714    
     35900   0.0014603373   0              1.8691576e-05  2.1233046e-05  6.2815055e-05  9.4285714    
     36000   0.0014250815   0              4.3387579e-05  2.2739831e-05  6.1081662e-05  9.4285714    
     36100   0.001491743    0              2.6730588e-05  1.2913895e-05  4.4052893e-05  9.4285714    
     36200   0.0016227027   0              1.0589533e-05  2.5252629e-05  6.0062198e-05  9.4285714    
     36300   0.0016411002   0              2.7807059e-05  2.1788441e-05  7.305546e-05   9.4285714    
     36400   0.0018698325   0              1.2081216e-05  3.8448142e-05  5.8280709e-05  9.4285714    
     36500   0.0019456131   0              4.8428656e-06  4.6301976e-05  3.1230684e-05  9.4285714    
     36600   0.0018965526   0              1.8245645e-05  3.287618e-05   6.5241166e-05  9.4285714    
     36700   0.001881713    0              9.2828972e-06  3.861794e-05   6.7773889e-05  9.4285714    
     36800   0.0019077919   0              9.0795888e-06  5.3607929e-05  2.8699263e-05  9.4285714    
     36900   0.0019195031   0              1.2820278e-05  3.9888098e-05  4.8245696e-05  9.4285714    
     37000   0.0018650281   0              1.9469326e-05  3.569226e-05   5.9425007e-05  9.4285714    
     37100   0.0018073031   0              1.8353833e-05  4.2176633e-05  6.3399894e-05  9.4285714    
     37200   0.0016454438   0              2.839141e-05   5.8084973e-05  6.1937298e-05  9.4285714    
     37300   0.0015354649   0              3.2947856e-05  2.6235942e-05  3.7756815e-05  9.4285714    
     37400   0.0015294201   0              2.1063199e-05  2.2539133e-05  7.99606e-05    9.4285714    
     37500   0.0015186173   0              2.6005395e-05  5.8517597e-05  9.8137889e-05  9.4285714    
     37600   0.0015703943   0              1.5468774e-05  3.9008322e-05  5.5192631e-05  9.4285714    
     37700   0.0016354009   0              1.267189e-05   3.3787232e-05  8.7635581e-05  9.4285714    
     37800   0.0016051808   0              1.1395815e-05  3.5105452e-05  0.00010568506  9.4285714    
     37900   0.0015811906   0              7.6295611e-06  3.7575117e-05  6.8013515e-05  9.4285714    
     38000   0.0016394955   0              2.3944689e-05  4.1392136e-05  7.1209221e-05  9.4285714    
     38100   0.0016471595   0              1.3235052e-05  2.5527073e-05  5.6541314e-05  9.4285714    
     38200   0.001604732    0              1.8649488e-05  2.653049e-05   5.9016822e-05  9.4285714    
     38300   0.0015634366   0              2.9431924e-05  4.3259207e-05  6.5742038e-05  9.4285714    
     38400   0.0015976367   0              1.6596894e-05  2.3632403e-05  5.3557949e-05  9.4285714    
     38500   0.0016124682   0              1.8192537e-05  1.421587e-05   7.0534527e-05  9.4285714    
     38600   0.0015675825   0              2.5813449e-05  3.5234416e-05  8.0317877e-05  9.4285714    
     38700   0.001533862    0              2.343171e-05   3.2381062e-05  9.5117363e-05  9.4285714    
     38800   0.0015012976   0              1.5922298e-05  4.1885692e-05  0.00010373757  9.4285714    
     38900   0.0014499883   0              1.4303522e-05  3.7716642e-05  8.6026173e-05  9.4285714    
     39000   0.0014084462   0              2.1257165e-05  3.8145328e-05  8.3321501e-05  9.4285714    
     39100   0.0013638182   0              3.4727986e-05  2.8648528e-05  9.5259871e-05  9.4285714    
     39200   0.0014091741   0              3.6256827e-05  1.7137392e-05  9.6233422e-05  9.4285714    
     39300   0.0014822612   0              3.3347304e-05  2.5070272e-05  9.3392889e-05  9.4285714    
     39400   0.0015300305   0              2.5384063e-05  2.2176434e-05  7.1789415e-05  9.4285714    
     39500   0.0015777893   0              5.2190068e-05  3.0760593e-05  8.2115084e-05  9.4285714    
     39600   0.0017132137   0              6.1026287e-05  2.6386943e-05  8.2556598e-05  9.4285714    
     39700   0.0017586798   0              4.854954e-05   2.6690463e-05  6.0282588e-05  9.4285714    
     39800   0.0016929209   0              7.4980133e-05  4.3917236e-05  8.3210338e-05  9.4285714    
     39900   0.0016865798   0              6.3298127e-05  4.9238533e-05  8.7039017e-05  9.4285714    
     40000   0.0016692767   0              3.7293718e-05  2.8767546e-05  7.0521609e-05  9.4285714    
     40100   0.0016589331   0              6.5777904e-05 -5.4353274e-07  7.5094347e-05  9.4285714    
     40200   0.0016168992   0              4.3790833e-05  2.917842e-05   7.3270075e-05  9.4285714    
     40300   0.0016240296   0              3.3192844e-05  1.9191588e-05  6.5689799e-05  9.4285714    
     40400   0.0016202985   0              5.1518088e-05  6.8582101e-06  7.3430257e-05  9.4285714    
     40500   0.0015802681   0              3.8190979e-05  4.1705655e-05  6.8140373e-05  9.4285714    
     40600   0.0015403701   0              4.5169759e-05  2.5026346e-05  7.0254845e-05  9.4285714    
     40700   0.0015174681   0              4.5014941e-05  1.72239e-05    6.2077929e-05  9.4285714    
     40800   0.0015498405   0              2.6346386e-05  2.0844572e-05  5.9645983e-05  9.4285714    
     40900   0.0015577898   0              1.7628007e-05 -7.4137817e-07  6.3272198e-05  9.4285714    
     41000   0.001547955    0              2.8170028e-05  1.8762777e-05  4.8837796e-05  9.4285714    
     41100   0.0015422499   0              2.1921463e-05  2.5117896e-05  5.3560443e-05  9.4285714    
     41200   0.0015472295   0              8.2773581e-06  1.2900278e-05  6.8395791e-05  9.4285714    
     41300   0.0014916463   0              2.3682916e-05  2.5234328e-05  5.6917919e-05  9.4285714    
     41400   0.0014983931   0              2.0607845e-05  2.7392725e-05  5.8532192e-05  9.4285714    
     41500   0.0014672297   0              1.5127489e-05  1.9778518e-05  4.9584513e-05  9.4285714    
     41600   0.0014577528   0              1.4611722e-05  2.0934931e-05  0.0001014495   9.4285714    
     41700   0.0014560389   0              1.4894558e-05  3.2272182e-05  7.773228e-05   9.4285714    
     41800   0.0014377119   0              3.3469558e-05  3.8503778e-05  7.5413152e-05  9.4285714    
     41900   0.0014147406   0              1.8379155e-05  2.7030078e-05  9.338209e-05   9.4285714    
     42000   0.0013961367   0              1.286085e-05   2.7177707e-05  9.5751793e-05  9.4285714    
     42100   0.0014273774   0              2.5586873e-05  3.1023451e-05  0.00010266666  9.4285714    
     42200   0.001488268    0              2.3981658e-05  4.2496056e-05  7.8688742e-05  9.4285714    
     42300   0.0015073899   0              2.1022426e-05  3.940583e-05   7.407868e-05   9.4285714    
     42400   0.0015031736   0              3.2319701e-05  1.7340681e-05  6.9639017e-05  9.4285714    
     42500   0.0015098012   0              2.8330714e-05  3.9915138e-05  6.4183423e-05  9.4285714    
     42600   0.00144707     0              2.6324157e-05  4.3752085e-05  8.378947e-05   9.4285714    
     42700   0.0014040769   0              3.6136946e-05  2.5266013e-05  8.7531152e-05  9.4285714    
     42800   0.0014014211   0              3.0107853e-05  4.6689779e-05  9.3453121e-05  9.4285714    
     42900   0.0014329816   0              2.408949e-05   2.0100483e-05  8.7666218e-05  9.4285714    
     43000   0.0013605616   0              4.5414857e-05  3.5081028e-05  8.1026213e-05  9.4285714    
     43100   0.0012828357   0              7.4545233e-05  7.088412e-05   0.00010585621  9.4285714    
     43200   0.0013123824   0              4.3867417e-05  3.2898451e-05  7.7274012e-05  9.4285714    
     43300   0.0012998818   0              2.2534755e-05  4.4894819e-05  3.8166077e-05  9.4285714    
     43400   0.0012636779   0              4.4725715e-05  5.729463e-05   5.8374215e-05  9.4285714    
     43500   0.0012770042   0              3.31934e-05    3.1264083e-05  5.7279708e-05  9.4285714    
     43600   0.0013626872   0              3.2604579e-05  3.288852e-05   5.1442819e-05  9.4285714    
     43700   0.0014527102   0              4.9628582e-05  3.7533637e-05  5.8086402e-05  9.4285714    
     43800   0.0015452941   0              5.2616559e-05  5.1916865e-05  7.7075658e-05  9.4285714    
     43900   0.0016681034   0              6.4964911e-05  6.6818431e-05  7.0074417e-05  9.4285714    
     44000   0.0016812606   0              6.614321e-05   5.2844329e-05  4.0012722e-05  9.4285714    
     44100   0.0016506022   0              6.1675597e-05  5.6094735e-05  7.6226834e-05  9.4285714    
     44200   0.0016213291   0              6.0022586e-05  5.9679461e-05  8.9991182e-05  9.4285714    
     44300   0.0016552216   0              3.9033573e-05  5.5119778e-05  6.2980764e-05  9.4285714    
     44400   0.0016456227   0              3.6657286e-05  5.6548401e-05  5.5470159e-05  9.4285714    
     44500   0.0015941312   0              4.00173e-05    6.8067244e-05  6.1016681e-05  9.4285714    
     44600   0.0015470109   0              4.0430956e-05  7.6614566e-05  7.1688221e-05  9.4285714    
     44700   0.0011745405   0              4.6444716e-05  6.7979753e-05  8.6615975e-05  9.4285714    
     44800   0.0011418288   0              3.5166291e-05  4.5932335e-05  9.5899151e-05  9.4285714    
     44900   0.0011912757   0              2.5813669e-05  1.977356e-05   5.6402682e-05  9.4285714    
     45000   0.0012573521   0              2.7531399e-05  3.5712822e-05  5.6060005e-05  9.4285714    
     45100   0.0012496354   0              2.8776196e-05  1.9560727e-05  3.7090495e-05  9.4285714    
     45200   0.0012699283   0              3.8230734e-05  1.9238462e-05  4.8985941e-05  9.4285714    
     45300   0.0012699047   0              4.4713283e-05  2.5518403e-05  5.5035065e-05  9.4285714    
     45400   0.0013215082   0              4.8059018e-05  2.8418502e-05  4.1803283e-05  9.4285714    
     45500   0.0013786086   0              4.5828135e-05  2.8755262e-05  5.0684647e-05  9.4285714    
     45600   0.0014133129   0              6.971456e-05   4.1517258e-05  6.4743733e-05  9.4285714    
     45700   0.0014696444   0              7.37139e-05    3.7886084e-05  5.5386546e-05  9.4285714    
     45800   0.0015713409   0              7.0108665e-05  3.874325e-05   5.4254549e-05  9.4285714    
     45900   0.0015710995   0              8.6898375e-05  5.4480837e-05  6.9783218e-05  9.4285714    
     46000   0.0015051395   0              8.388776e-05   5.5445195e-05  6.8520545e-05  9.4285714    
     46100   0.001487819    0              6.479029e-05   3.8372405e-05  6.5184473e-05  9.4285714    
     46200   0.0015143708   0              7.0293013e-05  2.9316823e-05  7.1346836e-05  9.4285714    
     46300   0.0015623791   0              6.1355867e-05  3.2374392e-05  6.277647e-05   9.4285714    
     46400   0.0015494656   0              4.9620162e-05  6.6531518e-06  6.2958691e-05  9.4285714    
     46500   0.0015091675   0              5.6421237e-05  4.4842659e-05  5.9729263e-05  9.4285714    
     46600   0.0015076225   0              5.7046388e-05  4.5360204e-05  5.9888213e-05  9.4285714    
     46700   0.0015568974   0              4.2683519e-05  1.6115978e-05  6.2444751e-05  9.4285714    
     46800   0.0015999391   0              5.8781922e-05  5.189772e-05   5.7341023e-05  9.4285714    
     46900   0.0016266346   0              5.76072e-05    5.3104399e-05  5.4152235e-05  9.4285714    
     47000   0.0017242305   0              6.0211678e-05  5.0967675e-05  5.9858682e-05  9.4285714    
     47100   0.0018331612   0              7.3226621e-05  6.1768744e-05  5.3883512e-05  9.4285714    
     47200   0.001878305    0              8.3265305e-05  6.3736407e-05  5.4967057e-05  9.4285714    
     47300   0.0018098008   0              8.1764975e-05  7.320357e-05   4.9715009e-05  9.4285714    
     47400   0.0017835198   0              6.4163172e-05  6.6667352e-05  5.4299847e-05  9.4285714    
     47500   0.0017586705   0              6.5190576e-05  5.6319561e-05  3.8149461e-05  9.4285714    
     47600   0.0015077093   0              7.2505231e-05  4.6410438e-05  6.038415e-05   9.4285714    
     47700   0.0014156271   0              5.1314327e-05  3.7363005e-05  6.0628664e-05  9.4285714    
     47800   0.0015134816   0              5.6045495e-05  5.9683411e-05  3.2913392e-05  9.4285714    
     47900   0.001585082    0              4.3832595e-05  3.7597788e-05  4.7775721e-05  9.4285714    
     48000   0.0015976446   0              4.9989142e-05  1.6177678e-05  5.052911e-05   9.4285714    
     48100   0.0015986211   0              5.6882019e-05  3.6876353e-05  4.9919804e-05  9.4285714    
     48200   0.0016959216   0              5.1870854e-05  5.1995718e-05  4.9989115e-05  9.4285714    
     48300   0.0018437634   0              5.9619074e-05  5.3469471e-05  5.9795109e-05  9.4285714    
     48400   0.0016737742   0              7.7069425e-05  3.6800989e-05  6.3053588e-05  9.4285714    
     48500   0.0015595042   0              4.6933831e-05  4.2472713e-05  5.0764206e-05  9.4285714    
     48600   0.0016025902   0              3.7829766e-05  4.61531e-05    4.452785e-05   9.4285714    
     48700   0.0015868797   0              3.2680542e-05  3.287551e-05   5.1803121e-05  9.4285714    
     48800   0.0015786651   0              4.9585036e-05  3.1228051e-05  5.1969227e-05  9.4285714    
     48900   0.0016210141   0              2.6888624e-05  3.2901143e-05  5.3478772e-05  9.4285714    
     49000   0.0015522528   0              2.5804506e-05  3.9157456e-05  4.4369277e-05  9.4285714    
     49100   0.0015335657   0              3.3972192e-05  6.3628546e-05  7.3520592e-05  9.4285714    
     49200   0.0014443471   0              5.131211e-05   6.1271763e-05  6.7144708e-05  9.4285714    
     49300   0.0013828381   0              6.8796139e-05  5.3140648e-05  7.8283879e-05  9.4285714    
     49400   0.0013329308   0              1.6748499e-05  4.3069099e-05  8.9338158e-05  9.4285714    
     49500   0.0013054773   0              3.8184228e-05  4.4808794e-05  7.2770558e-05  9.4285714    
     49600   0.0014088981   0              3.1996193e-05  4.6681503e-05  7.3649073e-05  9.4285714    
     49700   0.0014911128   0             -9.3551673e-06  2.728286e-05   6.8728083e-05  9.4285714    
     49800   0.0014242624   0              2.7937751e-05  4.6179198e-05  5.8154319e-05  9.4285714    
     49900   0.001421758    0              3.241762e-05   4.7942276e-05  7.4814257e-05  9.4285714    
     50000   0.001479783    0              3.271951e-06   2.0324401e-05  7.1642881e-05  9.4285714    
     50100   0.0014580046   0              2.2082376e-05  3.827373e-05   7.3569109e-05  9.4285714    
     50200   0.0013635638   0              4.2705162e-05  5.0367642e-05  9.3240579e-05  9.4285714    
     50300   0.0013768987   0              4.5071436e-05  3.9641259e-05  7.523091e-05   9.4285714    
     50400   0.0014488214   0              2.1930633e-05  2.5701846e-05  6.4061776e-05  9.4285714    
     50500   0.0014200684   0              1.1805609e-05  2.7208611e-05  7.8140885e-05  9.4285714    
     50600   0.0013584326   0              4.8761489e-05  4.30288e-05    8.0018468e-05  9.4285714    
     50700   0.0013626477   0              4.3521137e-05  3.3515072e-05  8.4046307e-05  9.4285714    
     50800   0.001339221    0              3.8342183e-05  5.5832732e-05  8.4457112e-05  9.4285714    
     50900   0.0012455868   0              5.1615569e-05  4.2888719e-05  0.00010277408  9.4285714    
     51000   0.0011976341   0              8.2902177e-06  4.5718527e-05  8.4766741e-05  9.4285714    
     51100   0.0012214153   0              7.3828042e-05  6.1391963e-05  9.1904551e-05  9.4285714    
     51200   0.0012622487   0              7.6254569e-05  4.239916e-05   8.196658e-05   9.4285714    
     51300   0.0012646763   0              1.0741163e-05  6.2617644e-05  8.537722e-05   9.4285714    
     51400   0.0012640017   0              8.1830573e-05  6.150872e-05   0.00013250717  9.4285714    
     51500   0.001283996    0              6.9712194e-05  5.1912029e-05  7.4769837e-05  9.4285714    
     51600   0.0012860904   0              3.1539798e-05  5.7956888e-05  7.4090626e-05  9.4285714    
     51700   0.0012388609   0              5.6984623e-05  4.5095182e-05  0.00010118877  9.4285714    
     51800   0.0012205481   0              6.4591331e-05  6.8835166e-05  7.1915205e-05  9.4285714    
     51900   0.0012413847   0              6.3565408e-05  5.5699589e-05  8.4586838e-05  9.4285714    
     52000   0.0012371166   0              5.0388009e-05  5.0431467e-05  7.8530372e-05  9.4285714    
     52100   0.0011976919   0              5.3650928e-05  6.3696845e-05  8.8685265e-05  9.4285714    
     52200   0.0011476382   0              6.4531816e-05  5.6975127e-05  0.00013146235  9.4285714    
     52300   0.001120302    0              6.1243858e-05  6.7912105e-05  0.00011351872  9.4285714    
     52400   0.0010744323   0              6.6545746e-05  6.1599863e-05  0.00010731027  9.4285714    
     52500   0.0010902123   0              6.4249425e-05  5.6000726e-05  0.00014068338  9.4285714    
     52600   0.0011177606   0              4.7249163e-05  5.6400867e-05  9.2360707e-05  9.4285714    
     52700   0.0011265258   0              6.5544341e-05  5.968467e-05   9.7416882e-05  9.4285714    
     52800   0.0011613338   0              7.3168107e-05  6.6868128e-05  0.00011020981  9.4285714    
     52900   0.0012252925   0              7.2762852e-05  8.2510802e-05  9.1766748e-05  9.4285714    
     53000   0.0013152938   0              8.8429697e-05  7.1168863e-05  8.8639545e-05  9.4285714    
     53100   0.0013060341   0              7.9981758e-05  7.2635661e-05  7.1065307e-05  9.4285714    
     53200   0.0012994672   0              6.7647309e-05  7.437209e-05   7.7837712e-05  9.4285714    
     53300   0.0012936199   0              6.9511866e-05  6.778977e-05   8.661085e-05   9.4285714    
     53400   0.0012998953   0              6.7746095e-05  5.5723039e-05  5.3324106e-05  9.4285714    
     53500   0.0012799276   0              7.4324112e-05  6.1865339e-05  5.8505688e-05  9.4285714    
     53600   0.0012900877   0              5.9691104e-05  5.7001837e-05  8.5444857e-05  9.4285714    
     53700   0.0013109997   0              5.4046234e-05  4.8136278e-05  4.5642935e-05  9.4285714    
     53800   0.0013032429   0              5.9775196e-05  5.7480903e-05  4.6839945e-05  9.4285714    
     53900   0.0012844016   0              5.1341598e-05  5.2487652e-05  6.9201962e-05  9.4285714    
     54000   0.0012645223   0              5.5128696e-05  4.6618453e-05  6.2529086e-05  9.4285714    
     54100   0.0012620768   0              4.4589507e-05  4.7710665e-05  6.6724096e-05  9.4285714    
     54200   0.0011864634   0              5.0211098e-05  4.7804289e-05  5.8137257e-05  9.4285714    
     54300   0.0010945919   0              5.262689e-05   5.1436915e-05  6.7306544e-05  9.4285714    
     54400   0.0011263302   0              3.8580851e-05  3.549784e-05   6.6894284e-05  9.4285714    
     54500   0.00115223     0              3.4893847e-05  3.6185875e-05  5.2677062e-05  9.4285714    
     54600   0.0011244619   0              5.3900335e-05  4.902713e-05   6.1486156e-05  9.4285714    
     54700   0.0011158878   0              4.433211e-05   4.3594772e-05  7.2409815e-05  9.4285714    
     54800   0.0011305036   0              2.8995417e-05  3.2372945e-05  5.524733e-05   9.4285714    
     54900   0.0011105497   0              4.2883451e-05  4.1173088e-05  5.337325e-05   9.4285714    
     55000   0.00095899437  0              6.2348981e-05  8.9352658e-05  7.5470477e-05  9.4285714    
     55100   0.00085064038  0              5.4238118e-05  0.00010065577  9.9093631e-05  9.4285714    
     55200   0.00086668472  0              3.7227772e-05  3.9279835e-05  8.577433e-05   9.4285714    
     55300   0.00087843666  0              4.239036e-05   4.723142e-05   7.4952716e-05  9.4285714    
     55400   0.00082377194  0              5.2202619e-05  6.4174337e-05  7.750947e-05   9.4285714    
     55500   0.00081896854  0              3.8255448e-05  4.5707228e-05  5.5593862e-05  9.4285714    
     55600   0.00086116306  0              4.6707031e-05  7.7447867e-05  8.5174963e-05  9.4285714    
     55700   0.00081223167  0              5.2824926e-05  6.20202e-05    8.3653885e-05  9.4285714    
     55800   0.00082481325  0              4.5778557e-05  7.5400026e-05  8.1343831e-05  9.4285714    
     55900   0.00082693004  0              4.2441284e-05  5.7391804e-05  9.6248139e-05  9.4285714    
     56000   0.00082607731  0              4.0939495e-05  5.1613511e-05  9.0956576e-05  9.4285714    
     56100   0.00081498113  0              3.2361125e-05  6.2817328e-05  8.399371e-05   9.4285714    
     56200   0.00081771809  0              2.0409422e-05  3.7777237e-05  7.7775453e-05  9.4285714    
     56300   0.00081321183  0              2.3804715e-05  4.7310722e-05  8.3568109e-05  9.4285714    
     56400   0.00080950034  0              3.3362522e-05  5.1194563e-05  8.5928595e-05  9.4285714    
     56500   0.00080846047  0              3.3150132e-05  2.5562809e-05  6.2163733e-05  9.4285714    
     56600   0.00080605715  0              3.1951432e-05  3.9156187e-05  7.2403491e-05  9.4285714    
     56700   0.00079667176  0              3.292472e-05   3.868912e-05   7.2463632e-05  9.4285714    
     56800   0.00079114207  0              3.2846357e-05  2.8207158e-05  5.746978e-05   9.4285714    
     56900   0.00079027028  0              3.3133888e-05  3.7965397e-05  6.8040839e-05  9.4285714    
     57000   0.00077619814  0              3.0277924e-05  3.4195045e-05  6.4185961e-05  9.4285714    
     57100   0.00078600146  0              3.1785932e-05  2.7560353e-05  5.7346497e-05  9.4285714    
     57200   0.00079615345  0              3.2160824e-05  3.0107312e-05  4.9840412e-05  9.4285714    
     57300   0.00080283978  0              3.1530695e-05  3.129528e-05   4.1871108e-05  9.4285714    
     57400   0.00080400453  0              3.4179051e-05  3.074861e-05   4.4923153e-05  9.4285714    
     57500   0.00079603983  0              3.8945269e-05  2.6657147e-05  4.2421625e-05  9.4285714    
     57600   0.00078511924  0              4.1039452e-05  2.8696463e-05  3.9380778e-05  9.4285714    
     57700   0.00078702106  0              3.2697668e-05  2.8744366e-05  4.7640606e-05  9.4285714    
     57800   0.00078631498  0              2.5601382e-05  2.2206967e-05  4.4475405e-05  9.4285714    
     57900   0.00078760002  0              2.3980514e-05  2.6545014e-05  4.1998708e-05  9.4285714    
     58000   0.00079164686  0              1.8246359e-05  2.372162e-05   4.5988881e-05  9.4285714    
     58100   0.00077899872  0              2.2468951e-05  2.2577003e-05  5.6861642e-05  9.4285714    
     58200   0.00074154912  0              2.566772e-05   3.1190505e-05  6.7361929e-05  9.4285714    
     58300   0.00074154434  0              2.6047774e-05  3.3817449e-05  5.5781758e-05  9.4285714    
     58400   0.00074911387  0              2.1123123e-05  2.5805299e-05  5.2884625e-05  9.4285714    
     58500   0.00074656288  0              1.6180908e-05  2.485249e-05   6.1690329e-05  9.4285714    
     58600   0.00075580335  0              1.9767556e-05  2.2131347e-05  6.7144668e-05  9.4285714    
     58700   0.00076791204  0              1.6233875e-05  1.6710901e-05  5.8570854e-05  9.4285714    
     58800   0.00077167992  0              1.3337188e-05  2.078175e-05   5.526932e-05   9.4285714    
     58900   0.00077128729  0              1.5267523e-05  1.6410164e-05  5.6848958e-05  9.4285714    
     59000   0.00077353336  0              1.5426697e-05  1.8731785e-05  6.1645722e-05  9.4285714    
     59100   0.00075532716  0              3.1600112e-05  2.7154246e-05  5.9573154e-05  9.4285714    
     59200   0.00071815218  0              6.0237317e-05  3.5711775e-05  5.5200867e-05  9.4285714    
     59300   0.00070370816  0              5.1234009e-05  3.5012091e-05  5.4569483e-05  9.4285714    
     59400   0.00072144666  0              4.1400454e-05  2.5409438e-05  5.312171e-05   9.4285714    
     59500   0.00074268476  0              4.2350635e-05  2.4395531e-05  6.0057746e-05  9.4285714    
     59600   0.00072711388  0              2.3695677e-05  2.0065442e-05  5.1738987e-05  9.4285714    
     59700   0.00068714022  0              3.1607302e-05  2.3804298e-05  5.0274573e-05  9.4285714    
     59800   0.00069030192  0              3.3599616e-05  3.1705489e-05  6.7014041e-05  9.4285714    
     59900   0.00067232592  0              2.0696862e-05  3.0790148e-05  6.4248041e-05  9.4285714    
     60000   0.00067510334  0              2.9993431e-05  2.7266489e-05  6.0009334e-05  9.4285714    
     60100   0.00067100207  0              3.2637944e-05  3.280749e-05   5.8292362e-05  9.4285714    
     60200   0.00065331824  0              3.5129389e-05  2.5177042e-05  6.0097624e-05  9.4285714    
     60300   0.00065460088  0              4.45216e-05    2.5726856e-05  7.6245407e-05  9.4285714    
     60400   0.00065335427  0              3.6418226e-05  2.3597412e-05  7.8551415e-05  9.4285714    
     60500   0.00064383948  0              4.0238415e-05  3.2340439e-05  7.959023e-05   9.4285714    
     60600   0.00063383813  0              4.190714e-05   2.5441865e-05  9.0163612e-05  9.4285714    
     60700   0.00062133353  0              3.1418513e-05  1.7288041e-05  0.00010798671  9.4285714    
     60800   0.00062426886  0              4.4830859e-05  2.9549078e-05  9.9378282e-05  9.4285714    
     60900   0.00062318954  0              4.9105596e-05  2.8527575e-05  9.4113738e-05  9.4285714    
     61000   0.00063499397  0              3.6486195e-05  2.1150895e-05  8.5554788e-05  9.4285714    
     61100   0.00064306478  0              3.7734226e-05  3.2670549e-05  6.6026479e-05  9.4285714    
     61200   0.00061817925  0              3.9871767e-05  3.5943828e-05  8.0648795e-05  9.4285714    
     61300   0.00059005864  0              4.321627e-05   3.1179264e-05  6.705022e-05   9.4285714    
     61400   0.00058086758  0              3.1691172e-05  3.87463e-05    6.3134466e-05  9.4285714    
     61500   0.00058368121  0              3.7016482e-05  3.7031774e-05  7.5804798e-05  9.4285714    
     61600   0.00058492934  0              2.8154728e-05  3.5655917e-05  5.6160131e-05  9.4285714    
     61700   0.00057343344  0              2.1465843e-05  2.9297017e-05  5.8790714e-05  9.4285714    
     61800   0.00057434791  0              4.4039798e-05  2.5194251e-05  6.8032791e-05  9.4285714    
     61900   0.00057064381  0              1.988663e-05   2.3926703e-05  5.5968268e-05  9.4285714    
     62000   0.00055874449  0              2.8588847e-05  2.0328067e-05  6.9591556e-05  9.4285714    
     62100   0.00055281544  0              4.9889863e-05  1.930599e-05   7.3946536e-05  9.4285714    
     62200   0.00052101473  0              3.9243047e-05  1.7326718e-05  6.4363129e-05  9.4285714    
     62300   0.00051624869  0              4.7872724e-05  1.6059834e-05  6.5072527e-05  9.4285714    
     62400   0.0005308773   0              3.1855059e-05  3.1464932e-05  7.0177053e-05  9.4285714    
     62500   0.00052933517  0              2.0065934e-05  3.6092905e-05  7.9820916e-05  9.4285714    
     62600   0.00051948479  0              2.2851425e-05  2.6156382e-05  8.6123559e-05  9.4285714    
     62700   0.00050933274  0              2.1186669e-05  3.03834e-05    7.9614923e-05  9.4285714    
     62800   0.00051926021  0              2.4865958e-05  3.154724e-05   7.8545823e-05  9.4285714    
     62900   0.00052439173  0              2.5419908e-05  2.4317965e-05  6.4904609e-05  9.4285714    
     63000   0.0005084319   0              2.8944423e-05  2.6674427e-05  6.1378317e-05  9.4285714    
     63100   0.00050758102  0              3.7076033e-05  2.5116433e-05  7.8071927e-05  9.4285714    
     63200   0.00051964251  0              1.9828755e-05  1.9752254e-05  4.9230048e-05  9.4285714    
     63300   0.0005088137   0              1.9141458e-05  1.9272991e-05  4.1876624e-05  9.4285714    
     63400   0.0005085423   0              2.6935676e-05  1.5913931e-05  6.0561075e-05  9.4285714    
     63500   0.00051007453  0              1.7249044e-05  1.4401833e-05  5.031814e-05   9.4285714    
     63600   0.00051519599  0              2.5006421e-05  1.9016916e-05  5.6310502e-05  9.4285714    
     63700   0.00051099001  0              2.4315723e-05  2.1026616e-05  6.4174613e-05  9.4285714    
     63800   0.00049473373  0              2.6027266e-05  2.4307907e-05  6.1788224e-05  9.4285714    
     63900   0.00050698903  0              2.8133458e-05  1.9734959e-05  6.5119703e-05  9.4285714    
     64000   0.00052023544  0              1.2544209e-05  2.2732665e-05  5.5599632e-05  9.4285714    
     64100   0.00051317712  0              1.8820504e-05  3.0734379e-05  5.8908623e-05  9.4285714    
     64200   0.00049527489  0              3.1601344e-05  3.3111353e-05  6.7816591e-05  9.4285714    
     64300   0.00047496021  0              2.6592073e-05  4.9906e-05     6.4052829e-05  9.4285714    
     64400   0.00047081935  0              3.1113276e-05  4.4897111e-05  7.4314462e-05  9.4285714    
     64500   0.00046200219  0              2.7641206e-05  2.9237989e-05  8.1397333e-05  9.4285714    
     64600   0.00046227166  0              2.8259465e-05  3.9262103e-05  6.7542413e-05  9.4285714    
     64700   0.00047971072  0              3.4699917e-05  1.8648451e-05  5.8364193e-05  9.4285714    
     64800   0.00048551982  0              2.514925e-05   1.7081864e-05  6.2354119e-05  9.4285714    
     64900   0.00047258403  0              3.1039752e-05  2.767372e-05   5.9264234e-05  9.4285714    
     65000   0.00046802831  0              3.3703225e-05  1.4081688e-05  6.3181424e-05  9.4285714    
     65100   0.00047335371  0              2.7968395e-05  1.8632571e-05  7.1597657e-05  9.4285714    
     65200   0.00047050885  0              2.8969754e-05  1.8863696e-05  6.8730404e-05  9.4285714    
     65300   0.0004636092   0              3.1197041e-05  2.4433638e-05  6.4203481e-05  9.4285714    
     65400   0.00046381278  0              2.6865426e-05  2.5122608e-05  5.7927553e-05  9.4285714    
     65500   0.00047046642  0              2.7852707e-05  2.0454938e-05  5.7170119e-05  9.4285714    
     65600   0.00045711232  0              3.0744959e-05  2.6826895e-05  6.9768471e-05  9.4285714    
     65700   0.00045118056  0              3.0177132e-05  3.1222296e-05  7.514301e-05   9.4285714    
     65800   0.00045526971  0              2.9225035e-05  2.5632422e-05  6.1829434e-05  9.4285714    
     65900   0.00044386013  0              2.7255788e-05  3.3467245e-05  7.6005874e-05  9.4285714    
     66000   0.00041891363  0              2.8716509e-05  4.1685071e-05  8.4614903e-05  9.4285714    
     66100   0.00039490721  0              3.5260607e-05  3.2385694e-05  7.9675611e-05  9.4285714    
     66200   0.0003910496   0              3.4576582e-05  2.4226499e-05  7.5484365e-05  9.4285714    
     66300   0.00039755276  0              2.4156167e-05  2.3845326e-05  7.0966151e-05  9.4285714    
     66400   0.00040085734  0              2.209548e-05   2.2945634e-05  7.4325657e-05  9.4285714    
     66500   0.00038216016  0              3.1076883e-05  3.3307708e-05  8.12146e-05    9.4285714    
     66600   0.00037087972  0              3.735237e-05   4.1130215e-05  7.8141793e-05  9.4285714    
     66700   0.00036529818  0              4.1720091e-05  3.1405782e-05  7.9208564e-05  9.4285714    
     66800   0.00035785245  0              4.1478883e-05  3.7458926e-05  8.4590765e-05  9.4285714    
     66900   0.00034489184  0              4.4996548e-05  4.3354528e-05  8.1502657e-05  9.4285714    
     67000   0.00033750441  0              5.4143504e-05  4.4875216e-05  8.2263644e-05  9.4285714    
     67100   0.00033434022  0              5.1536324e-05  4.6735435e-05  8.0576432e-05  9.4285714    
     67200   0.00031888628  0              6.551364e-05   4.9052936e-05  7.969867e-05   9.4285714    
     67300   0.00030803353  0              7.3989529e-05  4.711476e-05   7.9097369e-05  9.4285714    
     67400   0.00030910118  0              5.2579021e-05  4.5520863e-05  6.9404226e-05  9.4285714    
     67500   0.00030685067  0              5.6063869e-05  5.5941085e-05  6.9853623e-05  9.4285714    
     67600   0.00030481041  0              5.8747042e-05  5.3448011e-05  6.8094996e-05  9.4285714    
     67700   0.00029373387  0              3.9081326e-05  5.1574965e-05  6.6790927e-05  9.4285714    
     67800   0.00028305857  0              4.0553241e-05  5.5268178e-05  7.4574488e-05  9.4285714    
     67900   0.00026276457  0              4.4873184e-05  4.1624982e-05  8.2840557e-05  9.4285714    
     68000   0.00026038848  0              3.9188054e-05  3.6707715e-05  6.4371487e-05  9.4285714    
     68100   0.00025289327  0              4.1691706e-05  3.7413232e-05  6.0674663e-05  9.4285714    
     68200   0.00025265301  0              4.428833e-05   3.7970312e-05  6.8005609e-05  9.4285714    
     68300   0.00023396163  0              5.0480171e-05  4.683599e-05   6.3805033e-05  9.4285714    
     68400   0.00022602354  0              4.6964708e-05  4.8221821e-05  6.1323194e-05  9.4285714    
     68500   0.00021069149  0              3.5474245e-05  4.3671223e-05  8.1489138e-05  9.4285714    
     68600   0.0001843373   0              4.0600418e-05  3.5579437e-05  7.6647335e-05  9.4285714    
     68700   0.00015016415  0              4.2630278e-05  4.276108e-05   7.2787872e-05  9.4285714    
     68800   0.00012983596  0              4.626995e-05   6.2195735e-05  8.1215759e-05  9.4285714    
     68900   0.00014495671  0              4.3456157e-05  4.8491608e-05  6.7997764e-05  9.4285714    
     69000   0.00014251895  0              4.3314234e-05  4.1088702e-05  7.8054167e-05  9.4285714    
     69100   0.00012345888  0              4.0281335e-05  3.7168718e-05  8.8497129e-05  9.4285714    
     69200   0.00011976178  0              3.6726561e-05  3.9939982e-05  6.9502731e-05  9.4285714    
     69300   0.000120837    0              4.0970839e-05  4.3844465e-05  7.2817899e-05  9.4285714    
     69400   0.00011669686  0              3.4962958e-05  4.0181894e-05  7.3623145e-05  9.4285714    
     69500   0.0001038727   0              4.0525657e-05  4.5567111e-05  6.4390812e-05  9.4285714    
     69600   9.7508866e-05  0              4.3573572e-05  4.1890627e-05  6.3442574e-05  9.4285714    
     69700   0.00010156085  0              3.222633e-05   3.3390389e-05  5.4709353e-05  9.4285714    
     69800   0.00010364403  0              3.2878243e-05  3.5303773e-05  4.5555565e-05  9.4285714    
     69900   9.9360429e-05  0              3.0795067e-05  3.6324623e-05  4.8579556e-05  9.4285714    
     70000   9.9070132e-05  0              2.785178e-05   3.6584577e-05  4.3408001e-05  9.4285714    
     70100   9.6915078e-05  0              3.5554415e-05  3.918722e-05   3.6976759e-05  9.4285714    
     70200   9.1119303e-05  0              3.1990211e-05  3.8033884e-05  3.6309727e-05  9.4285714    
     70300   8.8269738e-05  0              2.7054586e-05  3.4739443e-05  3.0807384e-05  9.4285714    
     70400   8.9045529e-05  0              2.6871041e-05  3.04644e-05    2.4724349e-05  9.4285714    
     70500   8.7617831e-05  0              2.7048484e-05  3.0229501e-05  2.3379857e-05  9.4285714    
     70600   8.1426096e-05  0              3.1598468e-05  3.1855063e-05  2.3226773e-05  9.4285714    
     70700   7.6926733e-05  0              3.1178293e-05  2.483353e-05   2.3203902e-05  9.4285714    
     70800   7.5623213e-05  0              2.753155e-05   1.8639186e-05  2.1045899e-05  9.4285714    
     70900   7.3250448e-05  0              2.4721142e-05  1.9193784e-05  2.0723783e-05  9.4285714    
     71000   6.9241518e-05  0              2.0937027e-05  2.0444477e-05  1.7691245e-05  9.4285714    
     71100   6.602694e-05   0              2.0417854e-05  2.2136799e-05  1.7994195e-05  9.4285714    
     71200   6.4041862e-05  0              1.9953076e-05  2.1115666e-05  2.0016343e-05  9.4285714    
     71300   6.1588794e-05  0              1.8110906e-05  1.7635591e-05  1.7249949e-05  9.4285714    
     71400   5.9038128e-05  0              1.8568266e-05  1.4723916e-05  1.694229e-05   9.4285714    
     71500   5.71874e-05    0              1.7980511e-05  1.2829007e-05  1.7779675e-05  9.4285714    
     71600   5.4694186e-05  0              1.6603188e-05  1.4984837e-05  1.7207828e-05  9.4285714    
     71700   5.2273477e-05  0              1.5746192e-05  1.7633051e-05  1.8425216e-05  9.4285714    
     71800   4.9638309e-05  0              1.4271333e-05  1.7973188e-05  1.6776501e-05  9.4285714    
     71900   4.7841341e-05  0              1.390958e-05   1.683845e-05   1.6766347e-05  9.4285714    
     72000   4.7178351e-05  0              1.5012932e-05  1.4129792e-05  1.9568379e-05  9.4285714    
     72100   4.431006e-05   0              1.3877632e-05  1.2254358e-05  1.7708627e-05  9.4285714    
     72200   4.3259651e-05  0              1.2997568e-05  1.0789968e-05  1.6098282e-05  9.4285714    
     72300   4.2140753e-05  0              1.1967425e-05  1.0274023e-05  1.6073686e-05  9.4285714    
     72400   4.074752e-05   0              1.1839351e-05  1.1853548e-05  1.4461773e-05  9.4285714    
     72500   4.0022342e-05  0              1.2870944e-05  1.1879784e-05  1.6493413e-05  9.4285714    
     72600   3.7507392e-05  0              1.2901971e-05  1.0688337e-05  1.8466891e-05  9.4285714    
     72700   3.5209726e-05  0              1.3183158e-05  1.1127207e-05  1.7993125e-05  9.4285714    
     72800   3.4405294e-05  0              1.3600092e-05  1.0936231e-05  1.8120143e-05  9.4285714    
[...]
     81700   1.2987261e-05  0              1.5831586e-05  1.2814713e-05  2.7752956e-05  9.4285714    
     81800   1.3158313e-05  0              1.6818532e-05  1.3068003e-05  2.9221138e-05  9.4285714    
     81900   1.3323e-05     0              1.6243963e-05  1.2783412e-05  3.0755841e-05  9.4285714    
     82000   1.3299144e-05  0              1.6230564e-05  1.2837692e-05  3.0851597e-05  9.4285714    
     82100   1.3288775e-05  0              1.6620278e-05  1.347603e-05   3.1009647e-05  9.4285714    
     82200   1.237768e-05   0              1.5864824e-05  1.3468991e-05  3.2227892e-05  9.4285714    
     82300   1.204352e-05   0              1.585349e-05   1.4396162e-05  3.1103948e-05  9.4285714    
     82400   1.2184062e-05  0              1.599357e-05   1.4396504e-05  3.2110311e-05  9.4285714    
     82500   1.1612983e-05  0              1.6648748e-05  1.4693574e-05  3.385192e-05   9.4285714    
     82600   1.0491385e-05  0              1.9970617e-05  1.6379465e-05  3.5666759e-05  9.4285714    
     82700   8.8080792e-06  0              2.113236e-05   1.5886678e-05  3.7610823e-05  9.4285714    
     82800   8.2165791e-06  0              1.9496576e-05  1.4162391e-05  3.7080482e-05  9.4285714    
     82900   8.0910787e-06  0              1.8481344e-05  1.4225021e-05  3.6807374e-05  9.4285714    
     83000   8.2198801e-06  0              1.726606e-05   1.4629844e-05  3.6572601e-05  9.4285714    
     83100   8.2084263e-06  0              1.844268e-05   1.5018337e-05  3.6139643e-05  9.4285714    
     83200   8.2040761e-06  0              2.0110106e-05  1.4910272e-05  3.6488917e-05  9.4285714    
     83300   7.9345725e-06  0              1.9676048e-05  1.478658e-05   3.5911699e-05  9.4285714    
     83400   7.6874123e-06  0              2.0572575e-05  1.5146508e-05  3.4474351e-05  9.4285714    
     83500   7.0292722e-06  0              2.1222257e-05  1.5833794e-05  3.3905391e-05  9.4285714    
     83600   6.5124282e-06  0              2.0962358e-05  1.6623093e-05  3.2986642e-05  9.4285714    
     83700   6.5263298e-06  0              2.132905e-05   1.717958e-05   3.2940226e-05  9.4285714    
     83800   6.5830695e-06  0              2.0328202e-05  1.6837765e-05  3.3178061e-05  9.4285714    
     83900   6.6310485e-06  0              1.9438181e-05  1.6365748e-05  3.2356636e-05  9.4285714    
     84000   6.7481188e-06  0              1.9107455e-05  1.6036269e-05  3.1283916e-05  9.4285714    
     84100   6.9776957e-06  0              1.7592857e-05  1.5816746e-05  3.1083972e-05  9.4285714    
     84200   6.8548887e-06  0              1.7846271e-05  1.6447099e-05  3.1551639e-05  9.4285714    
     84300   6.6771242e-06  0              1.8659994e-05  1.6168517e-05  3.1375126e-05  9.4285714    
     84400   6.7400043e-06  0              1.8665288e-05  1.5647197e-05  3.0533283e-05  9.4285714    
     84500   6.8717147e-06  0              1.9602893e-05  1.5933462e-05  2.8696958e-05  9.4285714    
     84600   6.756832e-06   0              2.0448731e-05  1.5619499e-05  2.687892e-05   9.4285714    
     84700   6.338378e-06   0              2.0171088e-05  1.5891856e-05  2.5546201e-05  9.4285714    
     84800   5.9052234e-06  0              1.9865843e-05  1.6158842e-05  2.4199955e-05  9.4285714    
     84900   5.6600832e-06  0              1.9656128e-05  1.5129121e-05  2.3372198e-05  9.4285714    
     85000   5.4710097e-06  0              1.9907848e-05  1.4974144e-05  2.3294983e-05  9.4285714    
     85100   5.278471e-06   0              1.9468357e-05  1.5008008e-05  2.332466e-05   9.4285714    
     85200   5.1153502e-06  0              1.8769203e-05  1.4406416e-05  2.3824992e-05  9.4285714    
     85300   4.9743644e-06  0              1.8998671e-05  1.4654324e-05  2.4006119e-05  9.4285714    
     85400   4.6975541e-06  0              1.8701478e-05  1.4441713e-05  2.3999287e-05  9.4285714    
     85500   4.3313328e-06  0              1.8341995e-05  1.4462511e-05  2.4591316e-05  9.4285714    
     85600   4.1960855e-06  0              1.8691099e-05  1.5103949e-05  2.4559802e-05  9.4285714    
     85700   4.1571779e-06  0              1.8489425e-05  1.5105961e-05  2.4684784e-05  9.4285714    
     85800   4.1100117e-06  0              1.8362943e-05  1.4851461e-05  2.5350996e-05  9.4285714    
     85900   3.9694786e-06  0              1.8253786e-05  1.5002793e-05  2.5702148e-05  9.4285714    
     86000   3.7588745e-06  0              1.8080483e-05  1.5171062e-05  2.6546659e-05  9.4285714    
     86100   3.654853e-06   0              1.8013849e-05  1.5439882e-05  2.7071836e-05  9.4285714    
     86200   3.5884709e-06  0              1.8284302e-05  1.5976843e-05  2.7195746e-05  9.4285714    
     86300   3.4758205e-06  0              1.8640244e-05  1.5976811e-05  2.7609645e-05  9.4285714    
     86400   3.3279052e-06  0              1.8652839e-05  1.5717407e-05  2.7266663e-05  9.4285714    
     86500   3.1672496e-06  0              1.8925794e-05  1.5462973e-05  2.6351428e-05  9.4285714    
     86600   3.1252772e-06  0              1.9179638e-05  1.5223029e-05  2.5277492e-05  9.4285714    
     86700   3.2642909e-06  0              1.8927641e-05  1.5277896e-05  2.4181176e-05  9.4285714    
     86800   3.4119594e-06  0              1.9307732e-05  1.5512962e-05  2.3824879e-05  9.4285714    
     86900   3.4135563e-06  0              1.9629242e-05  1.5710811e-05  2.3964466e-05  9.4285714    
     87000   3.3077256e-06  0              1.9411824e-05  1.5682087e-05  2.4236197e-05  9.4285714    
     87100   3.1616087e-06  0              1.897988e-05   1.5180252e-05  2.4986427e-05  9.4285714    
     87200   3.0071653e-06  0              1.8331538e-05  1.4521803e-05  2.5604768e-05  9.4285714    
     87300   2.9259203e-06  0              1.8034677e-05  1.411902e-05   2.5849688e-05  9.4285714    
     87400   2.9175188e-06  0              1.8278176e-05  1.4339804e-05  2.5863204e-05  9.4285714    
     87500   2.8856448e-06  0              1.9000691e-05  1.468088e-05   2.5857936e-05  9.4285714    
     87600   2.8504589e-06  0              1.9800827e-05  1.4917138e-05  2.6000649e-05  9.4285714    
     87700   2.8267656e-06  0              1.9953607e-05  1.5270824e-05  2.6217143e-05  9.4285714    
     87800   2.7426445e-06  0              1.9840153e-05  1.5655475e-05  2.6233596e-05  9.4285714    
     87900   2.6855595e-06  0              1.9962617e-05  1.6209666e-05  2.6315763e-05  9.4285714    
     88000   2.6918243e-06  0              1.9854427e-05  1.6556974e-05  2.6448861e-05  9.4285714    
     88100   2.5986422e-06  0              2.0143485e-05  1.6873463e-05  2.6860685e-05  9.4285714    
     88200   2.5070684e-06  0              2.0449273e-05  1.7278644e-05  2.7281142e-05  9.4285714    
     88300   2.4894705e-06  0              1.9856184e-05  1.715465e-05   2.7770246e-05  9.4285714    
     88400   2.4289335e-06  0              1.9332377e-05  1.6924772e-05  2.8372623e-05  9.4285714    
     88500   2.3654433e-06  0              1.9133727e-05  1.6671933e-05  2.8984644e-05  9.4285714    
     88600   2.3521034e-06  0              1.8916973e-05  1.6304447e-05  2.9305487e-05  9.4285714    
     88700   2.3485576e-06  0              1.9019821e-05  1.6324615e-05  2.9825617e-05  9.4285714    
     88800   2.3243897e-06  0              1.9466483e-05  1.6086333e-05  3.0394975e-05  9.4285714    
     88900   2.3146359e-06  0              1.9884718e-05  1.5741041e-05  3.0935259e-05  9.4285714    
     89000   2.3589256e-06  0              2.0018251e-05  1.5899916e-05  3.1418484e-05  9.4285714    
     89100   2.3549818e-06  0              1.997999e-05   1.6164015e-05  3.138539e-05   9.4285714    
     89200   2.3143467e-06  0              1.983544e-05   1.6111639e-05  3.098661e-05   9.4285714    
     89300   2.2978833e-06  0              1.9555755e-05  1.5993236e-05  3.0236836e-05  9.4285714    
     89400   2.3071007e-06  0              1.9002676e-05  1.5785156e-05  2.9102861e-05  9.4285714    
     89500   2.2610029e-06  0              1.8545553e-05  1.5942493e-05  2.8108908e-05  9.4285714    
     89600   2.1962328e-06  0              1.8313273e-05  1.6291566e-05  2.7540811e-05  9.4285714    
     89700   2.1946085e-06  0              1.8077571e-05  1.6116136e-05  2.7286669e-05  9.4285714    
     89800   2.1846544e-06  0              1.7886793e-05  1.5626646e-05  2.7064859e-05  9.4285714    
     89900   2.1758969e-06  0              1.7954935e-05  1.500318e-05   2.6601093e-05  9.4285714    
     90000   2.2470697e-06  0              1.7768554e-05  1.4597297e-05  2.5882731e-05  9.4285714    
     90100   2.2716394e-06  0              1.7377832e-05  1.4279039e-05  2.5394832e-05  9.4285714    
     90200   2.2170813e-06  0              1.7494041e-05  1.4133759e-05  2.5116435e-05  9.4285714    
     90300   2.218213e-06   0              1.7426676e-05  1.413175e-05   2.4976996e-05  9.4285714    
     90400   2.2417804e-06  0              1.7381679e-05  1.4069866e-05  2.4841384e-05  9.4285714    
     90500   2.2348688e-06  0              1.7808211e-05  1.4269153e-05  2.4681996e-05  9.4285714    
     90600   2.2465669e-06  0              1.8010768e-05  1.4522465e-05  2.4315091e-05  9.4285714    
     90700   2.2828362e-06  0              1.8176392e-05  1.4565294e-05  2.4103764e-05  9.4285714    
     90800   2.3283262e-06  0              1.8608461e-05  1.4497583e-05  2.4270449e-05  9.4285714    
     90900   2.3882746e-06  0              1.8798676e-05  1.4324822e-05  2.4594718e-05  9.4285714    
     91000   2.4451944e-06  0              1.8704817e-05  1.3931311e-05  2.4833546e-05  9.4285714    
     91100   2.5071117e-06  0              1.8635922e-05  1.3558225e-05  2.5013904e-05  9.4285714    
     91200   2.5837203e-06  0              1.8489243e-05  1.3350535e-05  2.5185732e-05  9.4285714    
     91300   2.6563029e-06  0              1.8440418e-05  1.3448418e-05  2.5725204e-05  9.4285714    
     91400   2.6984075e-06  0              1.8593431e-05  1.3939946e-05  2.6440639e-05  9.4285714    
     91500   2.6898689e-06  0              1.8557017e-05  1.4439513e-05  2.6872393e-05  9.4285714    
     91600   2.5130751e-06  0              1.8725145e-05  1.4676451e-05  2.7246749e-05  9.4285714    
     91700   2.2648451e-06  0              1.8823284e-05  1.4827733e-05  2.7459148e-05  9.4285714    
     91800   2.1040533e-06  0              1.8553928e-05  1.4722603e-05  2.7459375e-05  9.4285714    
     91900   2.0752062e-06  0              1.8414604e-05  1.4566324e-05  2.7709961e-05  9.4285714    
     92000   2.1263954e-06  0              1.8314692e-05  1.4445182e-05  2.7880461e-05  9.4285714    
     92100   2.0551973e-06  0              1.8380852e-05  1.465419e-05   2.8102389e-05  9.4285714    
     92200   1.8757028e-06  0              1.8449808e-05  1.5172931e-05  2.8272776e-05  9.4285714    
     92300   1.7613872e-06  0              1.80746e-05    1.569111e-05   2.8056135e-05  9.4285714    
     92400   1.7231083e-06  0              1.8254191e-05  1.6032732e-05  2.7805806e-05  9.4285714    
     92500   1.6694508e-06  0              1.8572625e-05  1.6307726e-05  2.7608021e-05  9.4285714    
     92600   1.5907286e-06  0              1.8550159e-05  1.6353493e-05  2.7687705e-05  9.4285714    
     92700   1.5914893e-06  0              1.8292739e-05  1.6202994e-05  2.7905242e-05  9.4285714    
     92800   1.5854865e-06  0              1.7961188e-05  1.6096108e-05  2.8021801e-05  9.4285714    
     92900   1.5381834e-06  0              1.8289145e-05  1.5839331e-05  2.8091674e-05  9.4285714    
     93000   1.5007507e-06  0              1.8876565e-05  1.5665962e-05  2.8026519e-05  9.4285714    
     93100   1.4462489e-06  0              1.9194983e-05  1.5510119e-05  2.7831412e-05  9.4285714    
     93200   1.3761233e-06  0              1.9474801e-05  1.5427225e-05  2.7669154e-05  9.4285714    
     93300   1.28738e-06    0              1.9441642e-05  1.5413238e-05  2.7673907e-05  9.4285714    
     93400   1.1841093e-06  0              1.9441692e-05  1.5436016e-05  2.7903159e-05  9.4285714    
     93500   1.1414427e-06  0              1.9920887e-05  1.5742637e-05  2.8205457e-05  9.4285714    
     93600   1.1488947e-06  0              1.9889069e-05  1.6095952e-05  2.8495659e-05  9.4285714    
     93700   1.1648095e-06  0              1.9645908e-05  1.6175614e-05  2.8896593e-05  9.4285714    
     93800   1.1441063e-06  0              1.941065e-05   1.5993414e-05  2.9305707e-05  9.4285714    
     93900   1.0719911e-06  0              1.8910103e-05  1.5606291e-05  2.9537584e-05  9.4285714    
     94000   1.0089687e-06  0              1.8823467e-05  1.5293978e-05  2.9529167e-05  9.4285714    
     94100   9.4869939e-07  0              1.8767163e-05  1.5081443e-05  2.9206368e-05  9.4285714    
     94200   8.7651568e-07  0              1.8820123e-05  1.5090469e-05  2.8854046e-05  9.4285714    
     94300   8.2258457e-07  0              1.9031378e-05  1.4971467e-05  2.8683713e-05  9.4285714    
     94400   7.8996252e-07  0              1.8910774e-05  1.4672077e-05  2.8450846e-05  9.4285714    
     94500   7.6630634e-07  0              1.8929967e-05  1.4665176e-05  2.8211796e-05  9.4285714    
     94600   7.6805824e-07  0              1.8895506e-05  1.468696e-05   2.7948153e-05  9.4285714    
     94700   7.914151e-07   0              1.8641192e-05  1.489061e-05   2.7545521e-05  9.4285714    
     94800   8.1369597e-07  0              1.860901e-05   1.5156357e-05  2.7166446e-05  9.4285714    
     94900   8.2245654e-07  0              1.8526994e-05  1.5168789e-05  2.6899039e-05  9.4285714    
     95000   8.0341336e-07  0              1.8327796e-05  1.5165794e-05  2.6669449e-05  9.4285714    
     95100   7.7099209e-07  0              1.8265287e-05  1.5297559e-05  2.6303857e-05  9.4285714    
     95200   7.4881761e-07  0              1.8045307e-05  1.535627e-05   2.6003247e-05  9.4285714    
     95300   7.2351961e-07  0              1.795942e-05   1.5366181e-05  2.5754564e-05  9.4285714    
     95400   7.0162254e-07  0              1.779781e-05   1.5297019e-05  2.5339984e-05  9.4285714    
     95500   6.9872248e-07  0              1.7610442e-05  1.5130593e-05  2.4965456e-05  9.4285714    
     95600   6.9959897e-07  0              1.7637107e-05  1.5038302e-05  2.4691866e-05  9.4285714    
     95700   6.9557868e-07  0              1.7581403e-05  1.5036014e-05  2.4391747e-05  9.4285714    
     95800   6.8144087e-07  0              1.7813079e-05  1.5115294e-05  2.4130126e-05  9.4285714    
     95900   6.598923e-07   0              1.7897329e-05  1.5075411e-05  2.3942577e-05  9.4285714    
     96000   6.3983034e-07  0              1.7847356e-05  1.4981769e-05  2.3804653e-05  9.4285714    
     96100   6.3009744e-07  0              1.8015619e-05  1.5013731e-05  2.3835e-05     9.4285714    
     96200   6.2703405e-07  0              1.8201139e-05  1.5131976e-05  2.399763e-05   9.4285714    
     96300   6.2026036e-07  0              1.8517063e-05  1.529876e-05   2.4257034e-05  9.4285714    
     96400   6.1303469e-07  0              1.8770906e-05  1.5335468e-05  2.4518167e-05  9.4285714    
     96500   6.1700513e-07  0              1.8838244e-05  1.5262485e-05  2.4723652e-05  9.4285714    
     96600   6.2807534e-07  0              1.8735223e-05  1.5144035e-05  2.4744776e-05  9.4285714    
     96700   6.3878275e-07  0              1.8598286e-05  1.5088677e-05  2.4666785e-05  9.4285714    
     96800   6.5074115e-07  0              1.8744017e-05  1.515525e-05   2.474119e-05   9.4285714    
     96900   6.5877204e-07  0              1.8801627e-05  1.5063572e-05  2.5025963e-05  9.4285714    
     97000   6.5704154e-07  0              1.8869437e-05  1.5035474e-05  2.5470088e-05  9.4285714    
     97100   6.4972416e-07  0              1.8823317e-05  1.4988658e-05  2.5922058e-05  9.4285714    
     97200   6.3623105e-07  0              1.867491e-05   1.4931714e-05  2.6238082e-05  9.4285714    
     97300   6.4289673e-07  0              1.8849206e-05  1.4982161e-05  2.6521523e-05  9.4285714    
     97400   6.5854227e-07  0              1.8927903e-05  1.4980707e-05  2.6787249e-05  9.4285714    
     97500   6.8769134e-07  0              1.893142e-05   1.4930789e-05  2.7100956e-05  9.4285714    
     97600   7.0849937e-07  0              1.9024116e-05  1.494863e-05   2.7450595e-05  9.4285714    
     97700   6.9227271e-07  0              1.8794427e-05  1.4915438e-05  2.7665401e-05  9.4285714    
     97800   6.7531441e-07  0              1.8623385e-05  1.4905246e-05  2.7774905e-05  9.4285714    
     97900   6.6708575e-07  0              1.8678984e-05  1.5135611e-05  2.7885142e-05  9.4285714    
     98000   6.5337338e-07  0              1.8639197e-05  1.5304324e-05  2.7955294e-05  9.4285714    
     98100   6.3516077e-07  0              1.872155e-05   1.5409793e-05  2.8092283e-05  9.4285714    
     98200   6.1195465e-07  0              1.8929994e-05  1.5512501e-05  2.8280491e-05  9.4285714    
     98300   5.8296077e-07  0              1.8942564e-05  1.5536987e-05  2.840954e-05   9.4285714    
     98400   5.5834566e-07  0              1.8950721e-05  1.5746056e-05  2.8532884e-05  9.4285714    
     98500   5.4746537e-07  0              1.8966792e-05  1.5938294e-05  2.866489e-05   9.4285714    
     98600   5.4369424e-07  0              1.895361e-05   1.5957593e-05  2.8680731e-05  9.4285714    
     98700   5.3586174e-07  0              1.9087141e-05  1.5876057e-05  2.8678161e-05  9.4285714    
     98800   5.2078443e-07  0              1.9276397e-05  1.5696048e-05  2.86871e-05    9.4285714    
     98900   4.9724515e-07  0              1.9383644e-05  1.5563921e-05  2.8664547e-05  9.4285714    
     99000   4.6694322e-07  0              1.95004e-05    1.5541263e-05  2.8680002e-05  9.4285714    
     99100   4.3651773e-07  0              1.9499226e-05  1.5520887e-05  2.8757862e-05  9.4285714    
     99200   4.0702148e-07  0              1.9341433e-05  1.556898e-05   2.8772894e-05  9.4285714    
     99300   3.7142902e-07  0              1.9388354e-05  1.568975e-05   2.8770383e-05  9.4285714    
     99400   3.3368469e-07  0              1.9296117e-05  1.5797389e-05  2.8696199e-05  9.4285714    
     99500   3.0571975e-07  0              1.9241752e-05  1.5985109e-05  2.8464114e-05  9.4285714    
     99600   2.8469993e-07  0              1.9389168e-05  1.6152683e-05  2.8135505e-05  9.4285714    
     99700   2.6803202e-07  0              1.9254319e-05  1.6240015e-05  2.7782006e-05  9.4285714    
     99800   2.5664288e-07  0              1.9164051e-05  1.6247243e-05  2.7371273e-05  9.4285714    
     99900   2.4656506e-07  0              1.916346e-05   1.6156172e-05  2.7038371e-05  9.4285714    
    100000   2.3613087e-07  0              1.9133003e-05  1.619726e-05   2.6820457e-05  9.4285714    
Loop time of 342.906 on 1 procs for 100000 steps with 2520 atoms

Performance: 1259821.972 tau/day, 291.625 timesteps/s, 734.896 katom-step/s
99.9% CPU use with 1 MPI tasks x 1 OpenMP threads

MPI task timing breakdown:
Section |  min time  |  avg time  |  max time  |%varavg| %total
---------------------------------------------------------------
Pair    | 4.8318     | 4.8318     | 4.8318     |   0.0 |  1.41
Bond    | 302.78     | 302.78     | 302.78     |   0.0 | 88.30
Neigh   | 5.5014     | 5.5014     | 5.5014     |   0.0 |  1.60
Comm    | 0.17873    | 0.17873    | 0.17873    |   0.0 |  0.05
Output  | 0.15827    | 0.15827    | 0.15827    |   0.0 |  0.05
Modify  | 28.409     | 28.409     | 28.409     |   0.0 |  8.28
Other   |            | 1.044      |            |       |  0.30

Nlocal:           2520 ave        2520 max        2520 min
Histogram: 1 0 0 0 0 0 0 0 0 0
Nghost:              0 ave           0 max           0 min
Histogram: 1 0 0 0 0 0 0 0 0 0
Neighs:           9716 ave        9716 max        9716 min
Histogram: 1 0 0 0 0 0 0 0 0 0

Total # of neighbors = 9716
Ave neighs/atom = 3.8555556
Ave special neighs/atom = 36.31746
Neighbor list builds = 4813
Dangerous builds = 0
Total wall time: 0:05:43
